n -t * -s 0  -x 200 -y 100 -Z 0 -z 30  -v circle -c black
n -t * -s 1  -x 200 -y 300 -Z 0 -z 30  -v circle -c black
n -t * -s 2  -x 400 -y 200 -Z 0 -z 30  -v circle -c black
V -t * -v 1.0a5 -a 0
W -t * -x 500 -y 400
A -t * -n 1 -p 0 -o 0x7fffffff -c 30 -a 1
A -t * -h 1 -m 1073741823 -s 0
n -t 0.1 -s 0 -S COLOR -c blue -o black -i blue -I black
n -t 0.10000000000000001 -s 0 -S DLABEL -l "Node1" -L ""
n -t 0.10000000000000001 -s 1 -S DLABEL -l "Node2" -L ""
n -t 0.10000000000000001 -s 2 -S DLABEL -l "Node3" -L ""
+ -t 1.000000000 -s 0 -d -1 -p tcp -e 40 -c 2 -a 0 -i 0 -k AGT 
- -t 1.000000000 -s 0 -d -1 -p tcp -e 40 -c 2 -a 0 -i 0 -k AGT
h -t 1.000000000 -s 0 -d -1 -p tcp -e 40 -c 2 -a 0 -i 0 -k AGT
+ -t 1.000000000 -s 0 -d -1 -p AODV -e 48 -c 2 -a 0 -i 0 -k RTR 
- -t 1.000000000 -s 0 -d -1 -p AODV -e 48 -c 2 -a 0 -i 0 -k RTR
h -t 1.000000000 -s 0 -d -1 -p AODV -e 48 -c 2 -a 0 -i 0 -k RTR
r -t 1.001508667 -s 1 -d -1 -p AODV -e 48 -c 2 -a 0 -i 0 -k RTR
+ -t 1.001508667 -s 1 -d 0 -p AODV -e 44 -c 2 -a 0 -i 0 -k RTR 
- -t 1.001508667 -s 1 -d 0 -p AODV -e 44 -c 2 -a 0 -i 0 -k RTR
h -t 1.001508667 -s 1 -d 0 -p AODV -e 44 -c 2 -a 0 -i 0 -k RTR
r -t 1.001508745 -s 2 -d -1 -p AODV -e 48 -c 2 -a 0 -i 0 -k RTR
+ -t 1.005920479 -s 2 -d -1 -p AODV -e 48 -c 2 -a 0 -i 0 -k RTR 
- -t 1.005920479 -s 2 -d -1 -p AODV -e 48 -c 2 -a 0 -i 0 -k RTR
h -t 1.005920479 -s 2 -d -1 -p AODV -e 48 -c 2 -a 0 -i 0 -k RTR
+ -t 1.006031333 -s 0 -d 1 -p tcp -e 40 -c 2 -a 0 -i 0 -k RTR 
- -t 1.006031333 -s 0 -d 1 -p tcp -e 40 -c 2 -a 0 -i 0 -k RTR
h -t 1.006031333 -s 0 -d 1 -p tcp -e 40 -c 2 -a 0 -i 0 -k RTR
r -t 1.007917333 -s 1 -d 1 -p tcp -e 40 -c 2 -a 0 -i 0 -k AGT
+ -t 1.007917333 -s 1 -d -1 -p ack -e 40 -c 2 -a 0 -i 1 -k AGT 
- -t 1.007917333 -s 1 -d -1 -p ack -e 40 -c 2 -a 0 -i 1 -k AGT
h -t 1.007917333 -s 1 -d -1 -p ack -e 40 -c 2 -a 0 -i 1 -k AGT
+ -t 1.007917333 -s 1 -d 0 -p ack -e 40 -c 2 -a 0 -i 1 -k RTR 
- -t 1.007917333 -s 1 -d 0 -p ack -e 40 -c 2 -a 0 -i 1 -k RTR
h -t 1.007917333 -s 1 -d 0 -p ack -e 40 -c 2 -a 0 -i 1 -k RTR
r -t 1.009963333 -s 0 -d 0 -p ack -e 40 -c 2 -a 0 -i 1 -k AGT
+ -t 1.009963333 -s 0 -d -1 -p tcp -e 1040 -c 2 -a 0 -i 2 -k AGT 
- -t 1.009963333 -s 0 -d -1 -p tcp -e 1040 -c 2 -a 0 -i 2 -k AGT
h -t 1.009963333 -s 0 -d -1 -p tcp -e 1040 -c 2 -a 0 -i 2 -k AGT
+ -t 1.009963333 -s 0 -d -1 -p tcp -e 1040 -c 2 -a 0 -i 3 -k AGT 
- -t 1.009963333 -s 0 -d -1 -p tcp -e 1040 -c 2 -a 0 -i 3 -k AGT
h -t 1.009963333 -s 0 -d -1 -p tcp -e 1040 -c 2 -a 0 -i 3 -k AGT
+ -t 1.009963333 -s 0 -d 1 -p tcp -e 1040 -c 2 -a 0 -i 2 -k RTR 
- -t 1.009963333 -s 0 -d 1 -p tcp -e 1040 -c 2 -a 0 -i 2 -k RTR
h -t 1.009963333 -s 0 -d 1 -p tcp -e 1040 -c 2 -a 0 -i 2 -k RTR
+ -t 1.009963333 -s 0 -d 1 -p tcp -e 1040 -c 2 -a 0 -i 3 -k RTR 
- -t 1.009963333 -s 0 -d 1 -p tcp -e 1040 -c 2 -a 0 -i 3 -k RTR
h -t 1.009963333 -s 0 -d 1 -p tcp -e 1040 -c 2 -a 0 -i 3 -k RTR
r -t 1.019829333 -s 1 -d 1 -p tcp -e 1040 -c 2 -a 0 -i 2 -k AGT
+ -t 1.019829333 -s 1 -d -1 -p ack -e 40 -c 2 -a 0 -i 4 -k AGT 
- -t 1.019829333 -s 1 -d -1 -p ack -e 40 -c 2 -a 0 -i 4 -k AGT
h -t 1.019829333 -s 1 -d -1 -p ack -e 40 -c 2 -a 0 -i 4 -k AGT
+ -t 1.019829333 -s 1 -d 0 -p ack -e 40 -c 2 -a 0 -i 4 -k RTR 
- -t 1.019829333 -s 1 -d 0 -p ack -e 40 -c 2 -a 0 -i 4 -k RTR
h -t 1.019829333 -s 1 -d 0 -p ack -e 40 -c 2 -a 0 -i 4 -k RTR
r -t 1.021142824 -s 1 -d -1 -p AODV -e 48 -c 2 -a 0 -i 0 -k RTR
r -t 1.021142824 -s 0 -d -1 -p AODV -e 48 -c 2 -a 0 -i 0 -k RTR
r -t 1.030714824 -s 1 -d 1 -p tcp -e 1040 -c 2 -a 0 -i 3 -k AGT
+ -t 1.030714824 -s 1 -d -1 -p ack -e 40 -c 2 -a 0 -i 5 -k AGT 
- -t 1.030714824 -s 1 -d -1 -p ack -e 40 -c 2 -a 0 -i 5 -k AGT
h -t 1.030714824 -s 1 -d -1 -p ack -e 40 -c 2 -a 0 -i 5 -k AGT
+ -t 1.030714824 -s 1 -d 0 -p ack -e 40 -c 2 -a 0 -i 5 -k RTR 
- -t 1.030714824 -s 1 -d 0 -p ack -e 40 -c 2 -a 0 -i 5 -k RTR
h -t 1.030714824 -s 1 -d 0 -p ack -e 40 -c 2 -a 0 -i 5 -k RTR
r -t 1.032920824 -s 0 -d 0 -p ack -e 40 -c 2 -a 0 -i 4 -k AGT
+ -t 1.032920824 -s 0 -d -1 -p tcp -e 1040 -c 2 -a 0 -i 6 -k AGT 
- -t 1.032920824 -s 0 -d -1 -p tcp -e 1040 -c 2 -a 0 -i 6 -k AGT
h -t 1.032920824 -s 0 -d -1 -p tcp -e 1040 -c 2 -a 0 -i 6 -k AGT
+ -t 1.032920824 -s 0 -d -1 -p tcp -e 1040 -c 2 -a 0 -i 7 -k AGT 
- -t 1.032920824 -s 0 -d -1 -p tcp -e 1040 -c 2 -a 0 -i 7 -k AGT
h -t 1.032920824 -s 0 -d -1 -p tcp -e 1040 -c 2 -a 0 -i 7 -k AGT
+ -t 1.032920824 -s 0 -d 1 -p tcp -e 1040 -c 2 -a 0 -i 6 -k RTR 
- -t 1.032920824 -s 0 -d 1 -p tcp -e 1040 -c 2 -a 0 -i 6 -k RTR
h -t 1.032920824 -s 0 -d 1 -p tcp -e 1040 -c 2 -a 0 -i 6 -k RTR
+ -t 1.032920824 -s 0 -d 1 -p tcp -e 1040 -c 2 -a 0 -i 7 -k RTR 
- -t 1.032920824 -s 0 -d 1 -p tcp -e 1040 -c 2 -a 0 -i 7 -k RTR
h -t 1.032920824 -s 0 -d 1 -p tcp -e 1040 -c 2 -a 0 -i 7 -k RTR
r -t 1.042906824 -s 1 -d 1 -p tcp -e 1040 -c 2 -a 0 -i 6 -k AGT
+ -t 1.042906824 -s 1 -d -1 -p ack -e 40 -c 2 -a 0 -i 8 -k AGT 
- -t 1.042906824 -s 1 -d -1 -p ack -e 40 -c 2 -a 0 -i 8 -k AGT
h -t 1.042906824 -s 1 -d -1 -p ack -e 40 -c 2 -a 0 -i 8 -k AGT
+ -t 1.042906824 -s 1 -d 0 -p ack -e 40 -c 2 -a 0 -i 8 -k RTR 
- -t 1.042906824 -s 1 -d 0 -p ack -e 40 -c 2 -a 0 -i 8 -k RTR
h -t 1.042906824 -s 1 -d 0 -p ack -e 40 -c 2 -a 0 -i 8 -k RTR
r -t 1.046120157 -s 0 -d 0 -p ack -e 40 -c 2 -a 0 -i 5 -k AGT
+ -t 1.046120157 -s 0 -d -1 -p tcp -e 1040 -c 2 -a 0 -i 9 -k AGT 
- -t 1.046120157 -s 0 -d -1 -p tcp -e 1040 -c 2 -a 0 -i 9 -k AGT
h -t 1.046120157 -s 0 -d -1 -p tcp -e 1040 -c 2 -a 0 -i 9 -k AGT
+ -t 1.046120157 -s 0 -d -1 -p tcp -e 1040 -c 2 -a 0 -i 10 -k AGT 
- -t 1.046120157 -s 0 -d -1 -p tcp -e 1040 -c 2 -a 0 -i 10 -k AGT
h -t 1.046120157 -s 0 -d -1 -p tcp -e 1040 -c 2 -a 0 -i 10 -k AGT
+ -t 1.046120157 -s 0 -d 1 -p tcp -e 1040 -c 2 -a 0 -i 9 -k RTR 
- -t 1.046120157 -s 0 -d 1 -p tcp -e 1040 -c 2 -a 0 -i 9 -k RTR
h -t 1.046120157 -s 0 -d 1 -p tcp -e 1040 -c 2 -a 0 -i 9 -k RTR
+ -t 1.046120157 -s 0 -d 1 -p tcp -e 1040 -c 2 -a 0 -i 10 -k RTR 
- -t 1.046120157 -s 0 -d 1 -p tcp -e 1040 -c 2 -a 0 -i 10 -k RTR
h -t 1.046120157 -s 0 -d 1 -p tcp -e 1040 -c 2 -a 0 -i 10 -k RTR
r -t 1.048166824 -s 0 -d 0 -p ack -e 40 -c 2 -a 0 -i 8 -k AGT
+ -t 1.048166824 -s 0 -d -1 -p tcp -e 1040 -c 2 -a 0 -i 11 -k AGT 
- -t 1.048166824 -s 0 -d -1 -p tcp -e 1040 -c 2 -a 0 -i 11 -k AGT
h -t 1.048166824 -s 0 -d -1 -p tcp -e 1040 -c 2 -a 0 -i 11 -k AGT
+ -t 1.048166824 -s 0 -d -1 -p tcp -e 1040 -c 2 -a 0 -i 12 -k AGT 
- -t 1.048166824 -s 0 -d -1 -p tcp -e 1040 -c 2 -a 0 -i 12 -k AGT
h -t 1.048166824 -s 0 -d -1 -p tcp -e 1040 -c 2 -a 0 -i 12 -k AGT
+ -t 1.048166824 -s 0 -d 1 -p tcp -e 1040 -c 2 -a 0 -i 11 -k RTR 
- -t 1.048166824 -s 0 -d 1 -p tcp -e 1040 -c 2 -a 0 -i 11 -k RTR
h -t 1.048166824 -s 0 -d 1 -p tcp -e 1040 -c 2 -a 0 -i 11 -k RTR
+ -t 1.048166824 -s 0 -d 1 -p tcp -e 1040 -c 2 -a 0 -i 12 -k RTR 
- -t 1.048166824 -s 0 -d 1 -p tcp -e 1040 -c 2 -a 0 -i 12 -k RTR
h -t 1.048166824 -s 0 -d 1 -p tcp -e 1040 -c 2 -a 0 -i 12 -k RTR
r -t 1.058732824 -s 1 -d 1 -p tcp -e 1040 -c 2 -a 0 -i 7 -k AGT
+ -t 1.058732824 -s 1 -d -1 -p ack -e 40 -c 2 -a 0 -i 13 -k AGT 
- -t 1.058732824 -s 1 -d -1 -p ack -e 40 -c 2 -a 0 -i 13 -k AGT
h -t 1.058732824 -s 1 -d -1 -p ack -e 40 -c 2 -a 0 -i 13 -k AGT
+ -t 1.058732824 -s 1 -d 0 -p ack -e 40 -c 2 -a 0 -i 13 -k RTR 
- -t 1.058732824 -s 1 -d 0 -p ack -e 40 -c 2 -a 0 -i 13 -k RTR
h -t 1.058732824 -s 1 -d 0 -p ack -e 40 -c 2 -a 0 -i 13 -k RTR
r -t 1.060798824 -s 0 -d 0 -p ack -e 40 -c 2 -a 0 -i 13 -k AGT
+ -t 1.060798824 -s 0 -d -1 -p tcp -e 1040 -c 2 -a 0 -i 14 -k AGT 
- -t 1.060798824 -s 0 -d -1 -p tcp -e 1040 -c 2 -a 0 -i 14 -k AGT
h -t 1.060798824 -s 0 -d -1 -p tcp -e 1040 -c 2 -a 0 -i 14 -k AGT
+ -t 1.060798824 -s 0 -d -1 -p tcp -e 1040 -c 2 -a 0 -i 15 -k AGT 
- -t 1.060798824 -s 0 -d -1 -p tcp -e 1040 -c 2 -a 0 -i 15 -k AGT
h -t 1.060798824 -s 0 -d -1 -p tcp -e 1040 -c 2 -a 0 -i 15 -k AGT
+ -t 1.060798824 -s 0 -d 1 -p tcp -e 1040 -c 2 -a 0 -i 14 -k RTR 
- -t 1.060798824 -s 0 -d 1 -p tcp -e 1040 -c 2 -a 0 -i 14 -k RTR
h -t 1.060798824 -s 0 -d 1 -p tcp -e 1040 -c 2 -a 0 -i 14 -k RTR
+ -t 1.060798824 -s 0 -d 1 -p tcp -e 1040 -c 2 -a 0 -i 15 -k RTR 
- -t 1.060798824 -s 0 -d 1 -p tcp -e 1040 -c 2 -a 0 -i 15 -k RTR
h -t 1.060798824 -s 0 -d 1 -p tcp -e 1040 -c 2 -a 0 -i 15 -k RTR
r -t 1.070844824 -s 1 -d 1 -p tcp -e 1040 -c 2 -a 0 -i 9 -k AGT
+ -t 1.070844824 -s 1 -d -1 -p ack -e 40 -c 2 -a 0 -i 16 -k AGT 
- -t 1.070844824 -s 1 -d -1 -p ack -e 40 -c 2 -a 0 -i 16 -k AGT
h -t 1.070844824 -s 1 -d -1 -p ack -e 40 -c 2 -a 0 -i 16 -k AGT
+ -t 1.070844824 -s 1 -d 0 -p ack -e 40 -c 2 -a 0 -i 16 -k RTR 
- -t 1.070844824 -s 1 -d 0 -p ack -e 40 -c 2 -a 0 -i 16 -k RTR
h -t 1.070844824 -s 1 -d 0 -p ack -e 40 -c 2 -a 0 -i 16 -k RTR
r -t 1.081071491 -s 1 -d 1 -p tcp -e 1040 -c 2 -a 0 -i 10 -k AGT
+ -t 1.081071491 -s 1 -d -1 -p ack -e 40 -c 2 -a 0 -i 17 -k AGT 
- -t 1.081071491 -s 1 -d -1 -p ack -e 40 -c 2 -a 0 -i 17 -k AGT
h -t 1.081071491 -s 1 -d -1 -p ack -e 40 -c 2 -a 0 -i 17 -k AGT
+ -t 1.081071491 -s 1 -d 0 -p ack -e 40 -c 2 -a 0 -i 17 -k RTR 
- -t 1.081071491 -s 1 -d 0 -p ack -e 40 -c 2 -a 0 -i 17 -k RTR
h -t 1.081071491 -s 1 -d 0 -p ack -e 40 -c 2 -a 0 -i 17 -k RTR
r -t 1.083077491 -s 0 -d 0 -p ack -e 40 -c 2 -a 0 -i 16 -k AGT
+ -t 1.083077491 -s 0 -d -1 -p tcp -e 1040 -c 2 -a 0 -i 18 -k AGT 
- -t 1.083077491 -s 0 -d -1 -p tcp -e 1040 -c 2 -a 0 -i 18 -k AGT
h -t 1.083077491 -s 0 -d -1 -p tcp -e 1040 -c 2 -a 0 -i 18 -k AGT
+ -t 1.083077491 -s 0 -d -1 -p tcp -e 1040 -c 2 -a 0 -i 19 -k AGT 
- -t 1.083077491 -s 0 -d -1 -p tcp -e 1040 -c 2 -a 0 -i 19 -k AGT
h -t 1.083077491 -s 0 -d -1 -p tcp -e 1040 -c 2 -a 0 -i 19 -k AGT
+ -t 1.083077491 -s 0 -d 1 -p tcp -e 1040 -c 2 -a 0 -i 18 -k RTR 
- -t 1.083077491 -s 0 -d 1 -p tcp -e 1040 -c 2 -a 0 -i 18 -k RTR
h -t 1.083077491 -s 0 -d 1 -p tcp -e 1040 -c 2 -a 0 -i 18 -k RTR
+ -t 1.083077491 -s 0 -d 1 -p tcp -e 1040 -c 2 -a 0 -i 19 -k RTR 
- -t 1.083077491 -s 0 -d 1 -p tcp -e 1040 -c 2 -a 0 -i 19 -k RTR
h -t 1.083077491 -s 0 -d 1 -p tcp -e 1040 -c 2 -a 0 -i 19 -k RTR
r -t 1.085264157 -s 0 -d 0 -p ack -e 40 -c 2 -a 0 -i 17 -k AGT
+ -t 1.085264157 -s 0 -d -1 -p tcp -e 1040 -c 2 -a 0 -i 20 -k AGT 
- -t 1.085264157 -s 0 -d -1 -p tcp -e 1040 -c 2 -a 0 -i 20 -k AGT
h -t 1.085264157 -s 0 -d -1 -p tcp -e 1040 -c 2 -a 0 -i 20 -k AGT
+ -t 1.085264157 -s 0 -d -1 -p tcp -e 1040 -c 2 -a 0 -i 21 -k AGT 
- -t 1.085264157 -s 0 -d -1 -p tcp -e 1040 -c 2 -a 0 -i 21 -k AGT
h -t 1.085264157 -s 0 -d -1 -p tcp -e 1040 -c 2 -a 0 -i 21 -k AGT
+ -t 1.085264157 -s 0 -d 1 -p tcp -e 1040 -c 2 -a 0 -i 20 -k RTR 
- -t 1.085264157 -s 0 -d 1 -p tcp -e 1040 -c 2 -a 0 -i 20 -k RTR
h -t 1.085264157 -s 0 -d 1 -p tcp -e 1040 -c 2 -a 0 -i 20 -k RTR
+ -t 1.085264157 -s 0 -d 1 -p tcp -e 1040 -c 2 -a 0 -i 21 -k RTR 
- -t 1.085264157 -s 0 -d 1 -p tcp -e 1040 -c 2 -a 0 -i 21 -k RTR
h -t 1.085264157 -s 0 -d 1 -p tcp -e 1040 -c 2 -a 0 -i 21 -k RTR
r -t 1.095110157 -s 1 -d 1 -p tcp -e 1040 -c 2 -a 0 -i 11 -k AGT
+ -t 1.095110157 -s 1 -d -1 -p ack -e 40 -c 2 -a 0 -i 22 -k AGT 
- -t 1.095110157 -s 1 -d -1 -p ack -e 40 -c 2 -a 0 -i 22 -k AGT
h -t 1.095110157 -s 1 -d -1 -p ack -e 40 -c 2 -a 0 -i 22 -k AGT
+ -t 1.095110157 -s 1 -d 0 -p ack -e 40 -c 2 -a 0 -i 22 -k RTR 
- -t 1.095110157 -s 1 -d 0 -p ack -e 40 -c 2 -a 0 -i 22 -k RTR
h -t 1.095110157 -s 1 -d 0 -p ack -e 40 -c 2 -a 0 -i 22 -k RTR
r -t 1.096976157 -s 0 -d 0 -p ack -e 40 -c 2 -a 0 -i 22 -k AGT
+ -t 1.096976157 -s 0 -d -1 -p tcp -e 1040 -c 2 -a 0 -i 23 -k AGT 
- -t 1.096976157 -s 0 -d -1 -p tcp -e 1040 -c 2 -a 0 -i 23 -k AGT
h -t 1.096976157 -s 0 -d -1 -p tcp -e 1040 -c 2 -a 0 -i 23 -k AGT
+ -t 1.096976157 -s 0 -d -1 -p tcp -e 1040 -c 2 -a 0 -i 24 -k AGT 
- -t 1.096976157 -s 0 -d -1 -p tcp -e 1040 -c 2 -a 0 -i 24 -k AGT
h -t 1.096976157 -s 0 -d -1 -p tcp -e 1040 -c 2 -a 0 -i 24 -k AGT
+ -t 1.096976157 -s 0 -d 1 -p tcp -e 1040 -c 2 -a 0 -i 23 -k RTR 
- -t 1.096976157 -s 0 -d 1 -p tcp -e 1040 -c 2 -a 0 -i 23 -k RTR
h -t 1.096976157 -s 0 -d 1 -p tcp -e 1040 -c 2 -a 0 -i 23 -k RTR
+ -t 1.096976157 -s 0 -d 1 -p tcp -e 1040 -c 2 -a 0 -i 24 -k RTR 
- -t 1.096976157 -s 0 -d 1 -p tcp -e 1040 -c 2 -a 0 -i 24 -k RTR
h -t 1.096976157 -s 0 -d 1 -p tcp -e 1040 -c 2 -a 0 -i 24 -k RTR
r -t 1.107082157 -s 1 -d 1 -p tcp -e 1040 -c 2 -a 0 -i 12 -k AGT
+ -t 1.107082157 -s 1 -d -1 -p ack -e 40 -c 2 -a 0 -i 25 -k AGT 
- -t 1.107082157 -s 1 -d -1 -p ack -e 40 -c 2 -a 0 -i 25 -k AGT
h -t 1.107082157 -s 1 -d -1 -p ack -e 40 -c 2 -a 0 -i 25 -k AGT
+ -t 1.107082157 -s 1 -d 0 -p ack -e 40 -c 2 -a 0 -i 25 -k RTR 
- -t 1.107082157 -s 1 -d 0 -p ack -e 40 -c 2 -a 0 -i 25 -k RTR
h -t 1.107082157 -s 1 -d 0 -p ack -e 40 -c 2 -a 0 -i 25 -k RTR
r -t 1.109008157 -s 0 -d 0 -p ack -e 40 -c 2 -a 0 -i 25 -k AGT
+ -t 1.109008157 -s 0 -d -1 -p tcp -e 1040 -c 2 -a 0 -i 26 -k AGT 
- -t 1.109008157 -s 0 -d -1 -p tcp -e 1040 -c 2 -a 0 -i 26 -k AGT
h -t 1.109008157 -s 0 -d -1 -p tcp -e 1040 -c 2 -a 0 -i 26 -k AGT
+ -t 1.109008157 -s 0 -d -1 -p tcp -e 1040 -c 2 -a 0 -i 27 -k AGT 
- -t 1.109008157 -s 0 -d -1 -p tcp -e 1040 -c 2 -a 0 -i 27 -k AGT
h -t 1.109008157 -s 0 -d -1 -p tcp -e 1040 -c 2 -a 0 -i 27 -k AGT
+ -t 1.109008157 -s 0 -d 1 -p tcp -e 1040 -c 2 -a 0 -i 26 -k RTR 
- -t 1.109008157 -s 0 -d 1 -p tcp -e 1040 -c 2 -a 0 -i 26 -k RTR
h -t 1.109008157 -s 0 -d 1 -p tcp -e 1040 -c 2 -a 0 -i 26 -k RTR
+ -t 1.109008157 -s 0 -d 1 -p tcp -e 1040 -c 2 -a 0 -i 27 -k RTR 
- -t 1.109008157 -s 0 -d 1 -p tcp -e 1040 -c 2 -a 0 -i 27 -k RTR
h -t 1.109008157 -s 0 -d 1 -p tcp -e 1040 -c 2 -a 0 -i 27 -k RTR
r -t 1.118894157 -s 1 -d 1 -p tcp -e 1040 -c 2 -a 0 -i 14 -k AGT
+ -t 1.118894157 -s 1 -d -1 -p ack -e 40 -c 2 -a 0 -i 28 -k AGT 
- -t 1.118894157 -s 1 -d -1 -p ack -e 40 -c 2 -a 0 -i 28 -k AGT
h -t 1.118894157 -s 1 -d -1 -p ack -e 40 -c 2 -a 0 -i 28 -k AGT
+ -t 1.118894157 -s 1 -d 0 -p ack -e 40 -c 2 -a 0 -i 28 -k RTR 
- -t 1.118894157 -s 1 -d 0 -p ack -e 40 -c 2 -a 0 -i 28 -k RTR
h -t 1.118894157 -s 1 -d 0 -p ack -e 40 -c 2 -a 0 -i 28 -k RTR
r -t 1.120760157 -s 0 -d 0 -p ack -e 40 -c 2 -a 0 -i 28 -k AGT
+ -t 1.120760157 -s 0 -d -1 -p tcp -e 1040 -c 2 -a 0 -i 29 -k AGT 
- -t 1.120760157 -s 0 -d -1 -p tcp -e 1040 -c 2 -a 0 -i 29 -k AGT
h -t 1.120760157 -s 0 -d -1 -p tcp -e 1040 -c 2 -a 0 -i 29 -k AGT
+ -t 1.120760157 -s 0 -d -1 -p tcp -e 1040 -c 2 -a 0 -i 30 -k AGT 
- -t 1.120760157 -s 0 -d -1 -p tcp -e 1040 -c 2 -a 0 -i 30 -k AGT
h -t 1.120760157 -s 0 -d -1 -p tcp -e 1040 -c 2 -a 0 -i 30 -k AGT
+ -t 1.120760157 -s 0 -d 1 -p tcp -e 1040 -c 2 -a 0 -i 29 -k RTR 
- -t 1.120760157 -s 0 -d 1 -p tcp -e 1040 -c 2 -a 0 -i 29 -k RTR
h -t 1.120760157 -s 0 -d 1 -p tcp -e 1040 -c 2 -a 0 -i 29 -k RTR
+ -t 1.120760157 -s 0 -d 1 -p tcp -e 1040 -c 2 -a 0 -i 30 -k RTR 
- -t 1.120760157 -s 0 -d 1 -p tcp -e 1040 -c 2 -a 0 -i 30 -k RTR
h -t 1.120760157 -s 0 -d 1 -p tcp -e 1040 -c 2 -a 0 -i 30 -k RTR
r -t 1.130846157 -s 1 -d 1 -p tcp -e 1040 -c 2 -a 0 -i 15 -k AGT
+ -t 1.130846157 -s 1 -d -1 -p ack -e 40 -c 2 -a 0 -i 31 -k AGT 
- -t 1.130846157 -s 1 -d -1 -p ack -e 40 -c 2 -a 0 -i 31 -k AGT
h -t 1.130846157 -s 1 -d -1 -p ack -e 40 -c 2 -a 0 -i 31 -k AGT
+ -t 1.130846157 -s 1 -d 0 -p ack -e 40 -c 2 -a 0 -i 31 -k RTR 
- -t 1.130846157 -s 1 -d 0 -p ack -e 40 -c 2 -a 0 -i 31 -k RTR
h -t 1.130846157 -s 1 -d 0 -p ack -e 40 -c 2 -a 0 -i 31 -k RTR
r -t 1.132772157 -s 0 -d 0 -p ack -e 40 -c 2 -a 0 -i 31 -k AGT
+ -t 1.132772157 -s 0 -d -1 -p tcp -e 1040 -c 2 -a 0 -i 32 -k AGT 
- -t 1.132772157 -s 0 -d -1 -p tcp -e 1040 -c 2 -a 0 -i 32 -k AGT
h -t 1.132772157 -s 0 -d -1 -p tcp -e 1040 -c 2 -a 0 -i 32 -k AGT
+ -t 1.132772157 -s 0 -d -1 -p tcp -e 1040 -c 2 -a 0 -i 33 -k AGT 
- -t 1.132772157 -s 0 -d -1 -p tcp -e 1040 -c 2 -a 0 -i 33 -k AGT
h -t 1.132772157 -s 0 -d -1 -p tcp -e 1040 -c 2 -a 0 -i 33 -k AGT
+ -t 1.132772157 -s 0 -d 1 -p tcp -e 1040 -c 2 -a 0 -i 32 -k RTR 
- -t 1.132772157 -s 0 -d 1 -p tcp -e 1040 -c 2 -a 0 -i 32 -k RTR
h -t 1.132772157 -s 0 -d 1 -p tcp -e 1040 -c 2 -a 0 -i 32 -k RTR
+ -t 1.132772157 -s 0 -d 1 -p tcp -e 1040 -c 2 -a 0 -i 33 -k RTR 
- -t 1.132772157 -s 0 -d 1 -p tcp -e 1040 -c 2 -a 0 -i 33 -k RTR
h -t 1.132772157 -s 0 -d 1 -p tcp -e 1040 -c 2 -a 0 -i 33 -k RTR
r -t 1.143038157 -s 1 -d 1 -p tcp -e 1040 -c 2 -a 0 -i 18 -k AGT
+ -t 1.143038157 -s 1 -d -1 -p ack -e 40 -c 2 -a 0 -i 34 -k AGT 
- -t 1.143038157 -s 1 -d -1 -p ack -e 40 -c 2 -a 0 -i 34 -k AGT
h -t 1.143038157 -s 1 -d -1 -p ack -e 40 -c 2 -a 0 -i 34 -k AGT
+ -t 1.143038157 -s 1 -d 0 -p ack -e 40 -c 2 -a 0 -i 34 -k RTR 
- -t 1.143038157 -s 1 -d 0 -p ack -e 40 -c 2 -a 0 -i 34 -k RTR
h -t 1.143038157 -s 1 -d 0 -p ack -e 40 -c 2 -a 0 -i 34 -k RTR
r -t 1.145064157 -s 0 -d 0 -p ack -e 40 -c 2 -a 0 -i 34 -k AGT
+ -t 1.145064157 -s 0 -d -1 -p tcp -e 1040 -c 2 -a 0 -i 35 -k AGT 
- -t 1.145064157 -s 0 -d -1 -p tcp -e 1040 -c 2 -a 0 -i 35 -k AGT
h -t 1.145064157 -s 0 -d -1 -p tcp -e 1040 -c 2 -a 0 -i 35 -k AGT
+ -t 1.145064157 -s 0 -d -1 -p tcp -e 1040 -c 2 -a 0 -i 36 -k AGT 
- -t 1.145064157 -s 0 -d -1 -p tcp -e 1040 -c 2 -a 0 -i 36 -k AGT
h -t 1.145064157 -s 0 -d -1 -p tcp -e 1040 -c 2 -a 0 -i 36 -k AGT
+ -t 1.145064157 -s 0 -d 1 -p tcp -e 1040 -c 2 -a 0 -i 35 -k RTR 
- -t 1.145064157 -s 0 -d 1 -p tcp -e 1040 -c 2 -a 0 -i 35 -k RTR
h -t 1.145064157 -s 0 -d 1 -p tcp -e 1040 -c 2 -a 0 -i 35 -k RTR
+ -t 1.145064157 -s 0 -d 1 -p tcp -e 1040 -c 2 -a 0 -i 36 -k RTR 
- -t 1.145064157 -s 0 -d 1 -p tcp -e 1040 -c 2 -a 0 -i 36 -k RTR
h -t 1.145064157 -s 0 -d 1 -p tcp -e 1040 -c 2 -a 0 -i 36 -k RTR
r -t 1.155290157 -s 1 -d 1 -p tcp -e 1040 -c 2 -a 0 -i 19 -k AGT
+ -t 1.155290157 -s 1 -d -1 -p ack -e 40 -c 2 -a 0 -i 37 -k AGT 
- -t 1.155290157 -s 1 -d -1 -p ack -e 40 -c 2 -a 0 -i 37 -k AGT
h -t 1.155290157 -s 1 -d -1 -p ack -e 40 -c 2 -a 0 -i 37 -k AGT
+ -t 1.155290157 -s 1 -d 0 -p ack -e 40 -c 2 -a 0 -i 37 -k RTR 
- -t 1.155290157 -s 1 -d 0 -p ack -e 40 -c 2 -a 0 -i 37 -k RTR
h -t 1.155290157 -s 1 -d 0 -p ack -e 40 -c 2 -a 0 -i 37 -k RTR
r -t 1.157236157 -s 0 -d 0 -p ack -e 40 -c 2 -a 0 -i 37 -k AGT
+ -t 1.157236157 -s 0 -d -1 -p tcp -e 1040 -c 2 -a 0 -i 38 -k AGT 
- -t 1.157236157 -s 0 -d -1 -p tcp -e 1040 -c 2 -a 0 -i 38 -k AGT
h -t 1.157236157 -s 0 -d -1 -p tcp -e 1040 -c 2 -a 0 -i 38 -k AGT
+ -t 1.157236157 -s 0 -d -1 -p tcp -e 1040 -c 2 -a 0 -i 39 -k AGT 
- -t 1.157236157 -s 0 -d -1 -p tcp -e 1040 -c 2 -a 0 -i 39 -k AGT
h -t 1.157236157 -s 0 -d -1 -p tcp -e 1040 -c 2 -a 0 -i 39 -k AGT
+ -t 1.157236157 -s 0 -d 1 -p tcp -e 1040 -c 2 -a 0 -i 38 -k RTR 
- -t 1.157236157 -s 0 -d 1 -p tcp -e 1040 -c 2 -a 0 -i 38 -k RTR
h -t 1.157236157 -s 0 -d 1 -p tcp -e 1040 -c 2 -a 0 -i 38 -k RTR
+ -t 1.157236157 -s 0 -d 1 -p tcp -e 1040 -c 2 -a 0 -i 39 -k RTR 
- -t 1.157236157 -s 0 -d 1 -p tcp -e 1040 -c 2 -a 0 -i 39 -k RTR
h -t 1.157236157 -s 0 -d 1 -p tcp -e 1040 -c 2 -a 0 -i 39 -k RTR
r -t 1.167302157 -s 1 -d 1 -p tcp -e 1040 -c 2 -a 0 -i 20 -k AGT
+ -t 1.167302157 -s 1 -d -1 -p ack -e 40 -c 2 -a 0 -i 40 -k AGT 
- -t 1.167302157 -s 1 -d -1 -p ack -e 40 -c 2 -a 0 -i 40 -k AGT
h -t 1.167302157 -s 1 -d -1 -p ack -e 40 -c 2 -a 0 -i 40 -k AGT
+ -t 1.167302157 -s 1 -d 0 -p ack -e 40 -c 2 -a 0 -i 40 -k RTR 
- -t 1.167302157 -s 1 -d 0 -p ack -e 40 -c 2 -a 0 -i 40 -k RTR
h -t 1.167302157 -s 1 -d 0 -p ack -e 40 -c 2 -a 0 -i 40 -k RTR
r -t 1.178654824 -s 1 -d 1 -p tcp -e 1040 -c 2 -a 0 -i 21 -k AGT
+ -t 1.178654824 -s 1 -d -1 -p ack -e 40 -c 2 -a 0 -i 41 -k AGT 
- -t 1.178654824 -s 1 -d -1 -p ack -e 40 -c 2 -a 0 -i 41 -k AGT
h -t 1.178654824 -s 1 -d -1 -p ack -e 40 -c 2 -a 0 -i 41 -k AGT
+ -t 1.178654824 -s 1 -d 0 -p ack -e 40 -c 2 -a 0 -i 41 -k RTR 
- -t 1.178654824 -s 1 -d 0 -p ack -e 40 -c 2 -a 0 -i 41 -k RTR
h -t 1.178654824 -s 1 -d 0 -p ack -e 40 -c 2 -a 0 -i 41 -k RTR
r -t 1.181768157 -s 0 -d 0 -p ack -e 40 -c 2 -a 0 -i 40 -k AGT
+ -t 1.181768157 -s 0 -d -1 -p tcp -e 1040 -c 2 -a 0 -i 42 -k AGT 
- -t 1.181768157 -s 0 -d -1 -p tcp -e 1040 -c 2 -a 0 -i 42 -k AGT
h -t 1.181768157 -s 0 -d -1 -p tcp -e 1040 -c 2 -a 0 -i 42 -k AGT
+ -t 1.181768157 -s 0 -d -1 -p tcp -e 1040 -c 2 -a 0 -i 43 -k AGT 
- -t 1.181768157 -s 0 -d -1 -p tcp -e 1040 -c 2 -a 0 -i 43 -k AGT
h -t 1.181768157 -s 0 -d -1 -p tcp -e 1040 -c 2 -a 0 -i 43 -k AGT
+ -t 1.181768157 -s 0 -d 1 -p tcp -e 1040 -c 2 -a 0 -i 42 -k RTR 
- -t 1.181768157 -s 0 -d 1 -p tcp -e 1040 -c 2 -a 0 -i 42 -k RTR
h -t 1.181768157 -s 0 -d 1 -p tcp -e 1040 -c 2 -a 0 -i 42 -k RTR
+ -t 1.181768157 -s 0 -d 1 -p tcp -e 1040 -c 2 -a 0 -i 43 -k RTR 
- -t 1.181768157 -s 0 -d 1 -p tcp -e 1040 -c 2 -a 0 -i 43 -k RTR
h -t 1.181768157 -s 0 -d 1 -p tcp -e 1040 -c 2 -a 0 -i 43 -k RTR
r -t 1.183914824 -s 0 -d 0 -p ack -e 40 -c 2 -a 0 -i 41 -k AGT
+ -t 1.183914824 -s 0 -d -1 -p tcp -e 1040 -c 2 -a 0 -i 44 -k AGT 
- -t 1.183914824 -s 0 -d -1 -p tcp -e 1040 -c 2 -a 0 -i 44 -k AGT
h -t 1.183914824 -s 0 -d -1 -p tcp -e 1040 -c 2 -a 0 -i 44 -k AGT
+ -t 1.183914824 -s 0 -d -1 -p tcp -e 1040 -c 2 -a 0 -i 45 -k AGT 
- -t 1.183914824 -s 0 -d -1 -p tcp -e 1040 -c 2 -a 0 -i 45 -k AGT
h -t 1.183914824 -s 0 -d -1 -p tcp -e 1040 -c 2 -a 0 -i 45 -k AGT
+ -t 1.183914824 -s 0 -d 1 -p tcp -e 1040 -c 2 -a 0 -i 44 -k RTR 
- -t 1.183914824 -s 0 -d 1 -p tcp -e 1040 -c 2 -a 0 -i 44 -k RTR
h -t 1.183914824 -s 0 -d 1 -p tcp -e 1040 -c 2 -a 0 -i 44 -k RTR
+ -t 1.183914824 -s 0 -d 1 -p tcp -e 1040 -c 2 -a 0 -i 45 -k RTR 
- -t 1.183914824 -s 0 -d 1 -p tcp -e 1040 -c 2 -a 0 -i 45 -k RTR
h -t 1.183914824 -s 0 -d 1 -p tcp -e 1040 -c 2 -a 0 -i 45 -k RTR
r -t 1.194360824 -s 1 -d 1 -p tcp -e 1040 -c 2 -a 0 -i 23 -k AGT
+ -t 1.194360824 -s 1 -d -1 -p ack -e 40 -c 2 -a 0 -i 46 -k AGT 
- -t 1.194360824 -s 1 -d -1 -p ack -e 40 -c 2 -a 0 -i 46 -k AGT
h -t 1.194360824 -s 1 -d -1 -p ack -e 40 -c 2 -a 0 -i 46 -k AGT
+ -t 1.194360824 -s 1 -d 0 -p ack -e 40 -c 2 -a 0 -i 46 -k RTR 
- -t 1.194360824 -s 1 -d 0 -p ack -e 40 -c 2 -a 0 -i 46 -k RTR
h -t 1.194360824 -s 1 -d 0 -p ack -e 40 -c 2 -a 0 -i 46 -k RTR
r -t 1.204267491 -s 1 -d 1 -p tcp -e 1040 -c 2 -a 0 -i 24 -k AGT
+ -t 1.204267491 -s 1 -d -1 -p ack -e 40 -c 2 -a 0 -i 47 -k AGT 
- -t 1.204267491 -s 1 -d -1 -p ack -e 40 -c 2 -a 0 -i 47 -k AGT
h -t 1.204267491 -s 1 -d -1 -p ack -e 40 -c 2 -a 0 -i 47 -k AGT
+ -t 1.204267491 -s 1 -d 0 -p ack -e 40 -c 2 -a 0 -i 47 -k RTR 
- -t 1.204267491 -s 1 -d 0 -p ack -e 40 -c 2 -a 0 -i 47 -k RTR
h -t 1.204267491 -s 1 -d 0 -p ack -e 40 -c 2 -a 0 -i 47 -k RTR
r -t 1.206233491 -s 0 -d 0 -p ack -e 40 -c 2 -a 0 -i 46 -k AGT
+ -t 1.206233491 -s 0 -d -1 -p tcp -e 1040 -c 2 -a 0 -i 48 -k AGT 
- -t 1.206233491 -s 0 -d -1 -p tcp -e 1040 -c 2 -a 0 -i 48 -k AGT
h -t 1.206233491 -s 0 -d -1 -p tcp -e 1040 -c 2 -a 0 -i 48 -k AGT
+ -t 1.206233491 -s 0 -d -1 -p tcp -e 1040 -c 2 -a 0 -i 49 -k AGT 
- -t 1.206233491 -s 0 -d -1 -p tcp -e 1040 -c 2 -a 0 -i 49 -k AGT
h -t 1.206233491 -s 0 -d -1 -p tcp -e 1040 -c 2 -a 0 -i 49 -k AGT
+ -t 1.206233491 -s 0 -d 1 -p tcp -e 1040 -c 2 -a 0 -i 48 -k RTR 
- -t 1.206233491 -s 0 -d 1 -p tcp -e 1040 -c 2 -a 0 -i 48 -k RTR
h -t 1.206233491 -s 0 -d 1 -p tcp -e 1040 -c 2 -a 0 -i 48 -k RTR
+ -t 1.206233491 -s 0 -d 1 -p tcp -e 1040 -c 2 -a 0 -i 49 -k RTR 
- -t 1.206233491 -s 0 -d 1 -p tcp -e 1040 -c 2 -a 0 -i 49 -k RTR
h -t 1.206233491 -s 0 -d 1 -p tcp -e 1040 -c 2 -a 0 -i 49 -k RTR
r -t 1.208060157 -s 0 -d 0 -p ack -e 40 -c 2 -a 0 -i 47 -k AGT
+ -t 1.208060157 -s 0 -d -1 -p tcp -e 1040 -c 2 -a 0 -i 50 -k AGT 
- -t 1.208060157 -s 0 -d -1 -p tcp -e 1040 -c 2 -a 0 -i 50 -k AGT
h -t 1.208060157 -s 0 -d -1 -p tcp -e 1040 -c 2 -a 0 -i 50 -k AGT
+ -t 1.208060157 -s 0 -d -1 -p tcp -e 1040 -c 2 -a 0 -i 51 -k AGT 
- -t 1.208060157 -s 0 -d -1 -p tcp -e 1040 -c 2 -a 0 -i 51 -k AGT
h -t 1.208060157 -s 0 -d -1 -p tcp -e 1040 -c 2 -a 0 -i 51 -k AGT
+ -t 1.208060157 -s 0 -d 1 -p tcp -e 1040 -c 2 -a 0 -i 50 -k RTR 
- -t 1.208060157 -s 0 -d 1 -p tcp -e 1040 -c 2 -a 0 -i 50 -k RTR
h -t 1.208060157 -s 0 -d 1 -p tcp -e 1040 -c 2 -a 0 -i 50 -k RTR
+ -t 1.208060157 -s 0 -d 1 -p tcp -e 1040 -c 2 -a 0 -i 51 -k RTR 
- -t 1.208060157 -s 0 -d 1 -p tcp -e 1040 -c 2 -a 0 -i 51 -k RTR
h -t 1.208060157 -s 0 -d 1 -p tcp -e 1040 -c 2 -a 0 -i 51 -k RTR
r -t 1.218066157 -s 1 -d 1 -p tcp -e 1040 -c 2 -a 0 -i 26 -k AGT
+ -t 1.218066157 -s 1 -d -1 -p ack -e 40 -c 2 -a 0 -i 52 -k AGT 
- -t 1.218066157 -s 1 -d -1 -p ack -e 40 -c 2 -a 0 -i 52 -k AGT
h -t 1.218066157 -s 1 -d -1 -p ack -e 40 -c 2 -a 0 -i 52 -k AGT
+ -t 1.218066157 -s 1 -d 0 -p ack -e 40 -c 2 -a 0 -i 52 -k RTR 
- -t 1.218066157 -s 1 -d 0 -p ack -e 40 -c 2 -a 0 -i 52 -k RTR
h -t 1.218066157 -s 1 -d 0 -p ack -e 40 -c 2 -a 0 -i 52 -k RTR
r -t 1.219972157 -s 0 -d 0 -p ack -e 40 -c 2 -a 0 -i 52 -k AGT
+ -t 1.219972157 -s 0 -d -1 -p tcp -e 1040 -c 2 -a 0 -i 53 -k AGT 
- -t 1.219972157 -s 0 -d -1 -p tcp -e 1040 -c 2 -a 0 -i 53 -k AGT
h -t 1.219972157 -s 0 -d -1 -p tcp -e 1040 -c 2 -a 0 -i 53 -k AGT
+ -t 1.219972157 -s 0 -d -1 -p tcp -e 1040 -c 2 -a 0 -i 54 -k AGT 
- -t 1.219972157 -s 0 -d -1 -p tcp -e 1040 -c 2 -a 0 -i 54 -k AGT
h -t 1.219972157 -s 0 -d -1 -p tcp -e 1040 -c 2 -a 0 -i 54 -k AGT
+ -t 1.219972157 -s 0 -d 1 -p tcp -e 1040 -c 2 -a 0 -i 53 -k RTR 
- -t 1.219972157 -s 0 -d 1 -p tcp -e 1040 -c 2 -a 0 -i 53 -k RTR
h -t 1.219972157 -s 0 -d 1 -p tcp -e 1040 -c 2 -a 0 -i 53 -k RTR
+ -t 1.219972157 -s 0 -d 1 -p tcp -e 1040 -c 2 -a 0 -i 54 -k RTR 
- -t 1.219972157 -s 0 -d 1 -p tcp -e 1040 -c 2 -a 0 -i 54 -k RTR
h -t 1.219972157 -s 0 -d 1 -p tcp -e 1040 -c 2 -a 0 -i 54 -k RTR
r -t 1.230038157 -s 1 -d 1 -p tcp -e 1040 -c 2 -a 0 -i 27 -k AGT
+ -t 1.230038157 -s 1 -d -1 -p ack -e 40 -c 2 -a 0 -i 55 -k AGT 
- -t 1.230038157 -s 1 -d -1 -p ack -e 40 -c 2 -a 0 -i 55 -k AGT
h -t 1.230038157 -s 1 -d -1 -p ack -e 40 -c 2 -a 0 -i 55 -k AGT
+ -t 1.230038157 -s 1 -d 0 -p ack -e 40 -c 2 -a 0 -i 55 -k RTR 
- -t 1.230038157 -s 1 -d 0 -p ack -e 40 -c 2 -a 0 -i 55 -k RTR
h -t 1.230038157 -s 1 -d 0 -p ack -e 40 -c 2 -a 0 -i 55 -k RTR
r -t 1.239884824 -s 1 -d 1 -p tcp -e 1040 -c 2 -a 0 -i 29 -k AGT
+ -t 1.239884824 -s 1 -d -1 -p ack -e 40 -c 2 -a 0 -i 56 -k AGT 
- -t 1.239884824 -s 1 -d -1 -p ack -e 40 -c 2 -a 0 -i 56 -k AGT
h -t 1.239884824 -s 1 -d -1 -p ack -e 40 -c 2 -a 0 -i 56 -k AGT
+ -t 1.239884824 -s 1 -d 0 -p ack -e 40 -c 2 -a 0 -i 56 -k RTR 
- -t 1.239884824 -s 1 -d 0 -p ack -e 40 -c 2 -a 0 -i 56 -k RTR
h -t 1.239884824 -s 1 -d 0 -p ack -e 40 -c 2 -a 0 -i 56 -k RTR
r -t 1.241750824 -s 0 -d 0 -p ack -e 40 -c 2 -a 0 -i 55 -k AGT
+ -t 1.241750824 -s 0 -d -1 -p tcp -e 1040 -c 2 -a 0 -i 57 -k AGT 
- -t 1.241750824 -s 0 -d -1 -p tcp -e 1040 -c 2 -a 0 -i 57 -k AGT
h -t 1.241750824 -s 0 -d -1 -p tcp -e 1040 -c 2 -a 0 -i 57 -k AGT
+ -t 1.241750824 -s 0 -d -1 -p tcp -e 1040 -c 2 -a 0 -i 58 -k AGT 
- -t 1.241750824 -s 0 -d -1 -p tcp -e 1040 -c 2 -a 0 -i 58 -k AGT
h -t 1.241750824 -s 0 -d -1 -p tcp -e 1040 -c 2 -a 0 -i 58 -k AGT
+ -t 1.241750824 -s 0 -d 1 -p tcp -e 1040 -c 2 -a 0 -i 57 -k RTR 
- -t 1.241750824 -s 0 -d 1 -p tcp -e 1040 -c 2 -a 0 -i 57 -k RTR
h -t 1.241750824 -s 0 -d 1 -p tcp -e 1040 -c 2 -a 0 -i 57 -k RTR
+ -t 1.241750824 -s 0 -d 1 -p tcp -e 1040 -c 2 -a 0 -i 58 -k RTR 
- -t 1.241750824 -s 0 -d 1 -p tcp -e 1040 -c 2 -a 0 -i 58 -k RTR
h -t 1.241750824 -s 0 -d 1 -p tcp -e 1040 -c 2 -a 0 -i 58 -k RTR
r -t 1.243817491 -s 0 -d 0 -p ack -e 40 -c 2 -a 0 -i 56 -k AGT
+ -t 1.243817491 -s 0 -d -1 -p tcp -e 1040 -c 2 -a 0 -i 59 -k AGT 
- -t 1.243817491 -s 0 -d -1 -p tcp -e 1040 -c 2 -a 0 -i 59 -k AGT
h -t 1.243817491 -s 0 -d -1 -p tcp -e 1040 -c 2 -a 0 -i 59 -k AGT
+ -t 1.243817491 -s 0 -d 1 -p tcp -e 1040 -c 2 -a 0 -i 59 -k RTR 
- -t 1.243817491 -s 0 -d 1 -p tcp -e 1040 -c 2 -a 0 -i 59 -k RTR
h -t 1.243817491 -s 0 -d 1 -p tcp -e 1040 -c 2 -a 0 -i 59 -k RTR
r -t 1.253863491 -s 1 -d 1 -p tcp -e 1040 -c 2 -a 0 -i 30 -k AGT
+ -t 1.253863491 -s 1 -d -1 -p ack -e 40 -c 2 -a 0 -i 60 -k AGT 
- -t 1.253863491 -s 1 -d -1 -p ack -e 40 -c 2 -a 0 -i 60 -k AGT
h -t 1.253863491 -s 1 -d -1 -p ack -e 40 -c 2 -a 0 -i 60 -k AGT
+ -t 1.253863491 -s 1 -d 0 -p ack -e 40 -c 2 -a 0 -i 60 -k RTR 
- -t 1.253863491 -s 1 -d 0 -p ack -e 40 -c 2 -a 0 -i 60 -k RTR
h -t 1.253863491 -s 1 -d 0 -p ack -e 40 -c 2 -a 0 -i 60 -k RTR
r -t 1.263730157 -s 1 -d 1 -p tcp -e 1040 -c 2 -a 0 -i 32 -k AGT
+ -t 1.263730157 -s 1 -d -1 -p ack -e 40 -c 2 -a 0 -i 61 -k AGT 
- -t 1.263730157 -s 1 -d -1 -p ack -e 40 -c 2 -a 0 -i 61 -k AGT
h -t 1.263730157 -s 1 -d -1 -p ack -e 40 -c 2 -a 0 -i 61 -k AGT
+ -t 1.263730157 -s 1 -d 0 -p ack -e 40 -c 2 -a 0 -i 61 -k RTR 
- -t 1.263730157 -s 1 -d 0 -p ack -e 40 -c 2 -a 0 -i 61 -k RTR
h -t 1.263730157 -s 1 -d 0 -p ack -e 40 -c 2 -a 0 -i 61 -k RTR
r -t 1.265816157 -s 0 -d 0 -p ack -e 40 -c 2 -a 0 -i 60 -k AGT
+ -t 1.265816157 -s 0 -d -1 -p tcp -e 1040 -c 2 -a 0 -i 62 -k AGT 
- -t 1.265816157 -s 0 -d -1 -p tcp -e 1040 -c 2 -a 0 -i 62 -k AGT
h -t 1.265816157 -s 0 -d -1 -p tcp -e 1040 -c 2 -a 0 -i 62 -k AGT
+ -t 1.265816157 -s 0 -d 1 -p tcp -e 1040 -c 2 -a 0 -i 62 -k RTR 
- -t 1.265816157 -s 0 -d 1 -p tcp -e 1040 -c 2 -a 0 -i 62 -k RTR
h -t 1.265816157 -s 0 -d 1 -p tcp -e 1040 -c 2 -a 0 -i 62 -k RTR
r -t 1.267762824 -s 0 -d 0 -p ack -e 40 -c 2 -a 0 -i 61 -k AGT
+ -t 1.267762824 -s 0 -d -1 -p tcp -e 1040 -c 2 -a 0 -i 63 -k AGT 
- -t 1.267762824 -s 0 -d -1 -p tcp -e 1040 -c 2 -a 0 -i 63 -k AGT
h -t 1.267762824 -s 0 -d -1 -p tcp -e 1040 -c 2 -a 0 -i 63 -k AGT
+ -t 1.267762824 -s 0 -d 1 -p tcp -e 1040 -c 2 -a 0 -i 63 -k RTR 
- -t 1.267762824 -s 0 -d 1 -p tcp -e 1040 -c 2 -a 0 -i 63 -k RTR
h -t 1.267762824 -s 0 -d 1 -p tcp -e 1040 -c 2 -a 0 -i 63 -k RTR
r -t 1.277688824 -s 1 -d 1 -p tcp -e 1040 -c 2 -a 0 -i 33 -k AGT
+ -t 1.277688824 -s 1 -d -1 -p ack -e 40 -c 2 -a 0 -i 64 -k AGT 
- -t 1.277688824 -s 1 -d -1 -p ack -e 40 -c 2 -a 0 -i 64 -k AGT
h -t 1.277688824 -s 1 -d -1 -p ack -e 40 -c 2 -a 0 -i 64 -k AGT
+ -t 1.277688824 -s 1 -d 0 -p ack -e 40 -c 2 -a 0 -i 64 -k RTR 
- -t 1.277688824 -s 1 -d 0 -p ack -e 40 -c 2 -a 0 -i 64 -k RTR
h -t 1.277688824 -s 1 -d 0 -p ack -e 40 -c 2 -a 0 -i 64 -k RTR
r -t 1.287615491 -s 1 -d 1 -p tcp -e 1040 -c 2 -a 0 -i 35 -k AGT
+ -t 1.287615491 -s 1 -d -1 -p ack -e 40 -c 2 -a 0 -i 65 -k AGT 
- -t 1.287615491 -s 1 -d -1 -p ack -e 40 -c 2 -a 0 -i 65 -k AGT
h -t 1.287615491 -s 1 -d -1 -p ack -e 40 -c 2 -a 0 -i 65 -k AGT
+ -t 1.287615491 -s 1 -d 0 -p ack -e 40 -c 2 -a 0 -i 65 -k RTR 
- -t 1.287615491 -s 1 -d 0 -p ack -e 40 -c 2 -a 0 -i 65 -k RTR
h -t 1.287615491 -s 1 -d 0 -p ack -e 40 -c 2 -a 0 -i 65 -k RTR