s 1.000000000 _0_ AGT  --- 0 tcp 40 [0 0 0 0] ------- [0:0 1:1 32 0] [0 0] 0 0
r 1.000000000 _0_ RTR  --- 0 tcp 40 [0 0 0 0] ------- [0:0 1:1 32 0] [0 0] 0 0
s 1.000000000 _0_ RTR  --- 0 AODV 48 [0 0 0 0] ------- [0:255 -1:255 30 0] [0x2 1 1 [1 0] [0 4]] (REQUEST)
r 1.001508667 _1_ RTR  --- 0 AODV 48 [0 ffffffff 0 800] ------- [0:255 -1:255 30 0] [0x2 1 1 [1 0] [0 4]] (REQUEST)
s 1.001508667 _1_ RTR  --- 0 AODV 44 [0 0 0 0] ------- [1:255 0:255 30 0] [0x4 1 [1 4] 10.000000] (REPLY)
r 1.001508745 _2_ RTR  --- 0 AODV 48 [0 ffffffff 0 800] ------- [0:255 -1:255 30 0] [0x2 1 1 [1 0] [0 4]] (REQUEST)
s 1.005920479 _2_ RTR  --- 0 AODV 48 [0 ffffffff 0 800] ------- [2:255 -1:255 29 0] [0x2 2 1 [1 0] [0 4]] (REQUEST)
r 1.006031333 _0_ RTR  --- 0 AODV 44 [13a 0 1 800] ------- [1:255 0:255 30 0] [0x4 1 [1 4] 10.000000] (REPLY)
s 1.006031333 _0_ RTR  --- 0 tcp 40 [0 0 0 0] ------- [0:0 1:1 30 1] [0 0] 0 0
r 1.007917333 _1_ AGT  --- 0 tcp 40 [13a 1 0 800] ------- [0:0 1:1 30 1] [0 0] 1 0
s 1.007917333 _1_ AGT  --- 1 ack 40 [0 0 0 0] ------- [1:1 0:0 32 0] [0 0] 0 0
r 1.007917333 _1_ RTR  --- 1 ack 40 [0 0 0 0] ------- [1:1 0:0 32 0] [0 0] 0 0
s 1.007917333 _1_ RTR  --- 1 ack 40 [0 0 0 0] ------- [1:1 0:0 30 0] [0 0] 0 0
r 1.009963333 _0_ AGT  --- 1 ack 40 [13a 0 1 800] ------- [1:1 0:0 30 0] [0 0] 1 0
s 1.009963333 _0_ AGT  --- 2 tcp 1040 [0 0 0 0] ------- [0:0 1:1 32 0] [1 0] 0 0
r 1.009963333 _0_ RTR  --- 2 tcp 1040 [0 0 0 0] ------- [0:0 1:1 32 0] [1 0] 0 0
s 1.009963333 _0_ AGT  --- 3 tcp 1040 [0 0 0 0] ------- [0:0 1:1 32 0] [2 0] 0 0
r 1.009963333 _0_ RTR  --- 3 tcp 1040 [0 0 0 0] ------- [0:0 1:1 32 0] [2 0] 0 0
s 1.009963333 _0_ RTR  --- 2 tcp 1040 [0 0 0 0] ------- [0:0 1:1 30 1] [1 0] 0 0
s 1.009963333 _0_ RTR  --- 3 tcp 1040 [0 0 0 0] ------- [0:0 1:1 30 1] [2 0] 0 0
r 1.019829333 _1_ AGT  --- 2 tcp 1040 [13a 1 0 800] ------- [0:0 1:1 30 1] [1 0] 1 0
s 1.019829333 _1_ AGT  --- 4 ack 40 [0 0 0 0] ------- [1:1 0:0 32 0] [1 0] 0 0
r 1.019829333 _1_ RTR  --- 4 ack 40 [0 0 0 0] ------- [1:1 0:0 32 0] [1 0] 0 0
s 1.019829333 _1_ RTR  --- 4 ack 40 [0 0 0 0] ------- [1:1 0:0 30 0] [1 0] 0 0
r 1.021142824 _1_ RTR  --- 0 AODV 48 [0 ffffffff 2 800] ------- [2:255 -1:255 29 0] [0x2 2 1 [1 0] [0 4]] (REQUEST)
r 1.021142824 _0_ RTR  --- 0 AODV 48 [0 ffffffff 2 800] ------- [2:255 -1:255 29 0] [0x2 2 1 [1 0] [0 4]] (REQUEST)
r 1.030714824 _1_ AGT  --- 3 tcp 1040 [13a 1 0 800] ------- [0:0 1:1 30 1] [2 0] 1 0
s 1.030714824 _1_ AGT  --- 5 ack 40 [0 0 0 0] ------- [1:1 0:0 32 0] [2 0] 0 0
r 1.030714824 _1_ RTR  --- 5 ack 40 [0 0 0 0] ------- [1:1 0:0 32 0] [2 0] 0 0
s 1.030714824 _1_ RTR  --- 5 ack 40 [0 0 0 0] ------- [1:1 0:0 30 0] [2 0] 0 0
r 1.032920824 _0_ AGT  --- 4 ack 40 [13a 0 1 800] ------- [1:1 0:0 30 0] [1 0] 1 0
s 1.032920824 _0_ AGT  --- 6 tcp 1040 [0 0 0 0] ------- [0:0 1:1 32 0] [3 0] 0 0
r 1.032920824 _0_ RTR  --- 6 tcp 1040 [0 0 0 0] ------- [0:0 1:1 32 0] [3 0] 0 0
s 1.032920824 _0_ AGT  --- 7 tcp 1040 [0 0 0 0] ------- [0:0 1:1 32 0] [4 0] 0 0
r 1.032920824 _0_ RTR  --- 7 tcp 1040 [0 0 0 0] ------- [0:0 1:1 32 0] [4 0] 0 0
s 1.032920824 _0_ RTR  --- 6 tcp 1040 [0 0 0 0] ------- [0:0 1:1 30 1] [3 0] 0 0
s 1.032920824 _0_ RTR  --- 7 tcp 1040 [0 0 0 0] ------- [0:0 1:1 30 1] [4 0] 0 0
r 1.042906824 _1_ AGT  --- 6 tcp 1040 [13a 1 0 800] ------- [0:0 1:1 30 1] [3 0] 1 0
s 1.042906824 _1_ AGT  --- 8 ack 40 [0 0 0 0] ------- [1:1 0:0 32 0] [3 0] 0 0
r 1.042906824 _1_ RTR  --- 8 ack 40 [0 0 0 0] ------- [1:1 0:0 32 0] [3 0] 0 0
s 1.042906824 _1_ RTR  --- 8 ack 40 [0 0 0 0] ------- [1:1 0:0 30 0] [3 0] 0 0
r 1.046120157 _0_ AGT  --- 5 ack 40 [13a 0 1 800] ------- [1:1 0:0 30 0] [2 0] 1 0
s 1.046120157 _0_ AGT  --- 9 tcp 1040 [0 0 0 0] ------- [0:0 1:1 32 0] [5 0] 0 0
r 1.046120157 _0_ RTR  --- 9 tcp 1040 [0 0 0 0] ------- [0:0 1:1 32 0] [5 0] 0 0
s 1.046120157 _0_ AGT  --- 10 tcp 1040 [0 0 0 0] ------- [0:0 1:1 32 0] [6 0] 0 0
r 1.046120157 _0_ RTR  --- 10 tcp 1040 [0 0 0 0] ------- [0:0 1:1 32 0] [6 0] 0 0
s 1.046120157 _0_ RTR  --- 9 tcp 1040 [0 0 0 0] ------- [0:0 1:1 30 1] [5 0] 0 0
s 1.046120157 _0_ RTR  --- 10 tcp 1040 [0 0 0 0] ------- [0:0 1:1 30 1] [6 0] 0 0
r 1.048166824 _0_ AGT  --- 8 ack 40 [13a 0 1 800] ------- [1:1 0:0 30 0] [3 0] 1 0
s 1.048166824 _0_ AGT  --- 11 tcp 1040 [0 0 0 0] ------- [0:0 1:1 32 0] [7 0] 0 0
r 1.048166824 _0_ RTR  --- 11 tcp 1040 [0 0 0 0] ------- [0:0 1:1 32 0] [7 0] 0 0
s 1.048166824 _0_ AGT  --- 12 tcp 1040 [0 0 0 0] ------- [0:0 1:1 32 0] [8 0] 0 0
r 1.048166824 _0_ RTR  --- 12 tcp 1040 [0 0 0 0] ------- [0:0 1:1 32 0] [8 0] 0 0
s 1.048166824 _0_ RTR  --- 11 tcp 1040 [0 0 0 0] ------- [0:0 1:1 30 1] [7 0] 0 0
s 1.048166824 _0_ RTR  --- 12 tcp 1040 [0 0 0 0] ------- [0:0 1:1 30 1] [8 0] 0 0
r 1.058732824 _1_ AGT  --- 7 tcp 1040 [13a 1 0 800] ------- [0:0 1:1 30 1] [4 0] 1 0
s 1.058732824 _1_ AGT  --- 13 ack 40 [0 0 0 0] ------- [1:1 0:0 32 0] [4 0] 0 0
r 1.058732824 _1_ RTR  --- 13 ack 40 [0 0 0 0] ------- [1:1 0:0 32 0] [4 0] 0 0
s 1.058732824 _1_ RTR  --- 13 ack 40 [0 0 0 0] ------- [1:1 0:0 30 0] [4 0] 0 0
r 1.060798824 _0_ AGT  --- 13 ack 40 [13a 0 1 800] ------- [1:1 0:0 30 0] [4 0] 1 0
s 1.060798824 _0_ AGT  --- 14 tcp 1040 [0 0 0 0] ------- [0:0 1:1 32 0] [9 0] 0 0
r 1.060798824 _0_ RTR  --- 14 tcp 1040 [0 0 0 0] ------- [0:0 1:1 32 0] [9 0] 0 0
s 1.060798824 _0_ AGT  --- 15 tcp 1040 [0 0 0 0] ------- [0:0 1:1 32 0] [10 0] 0 0
r 1.060798824 _0_ RTR  --- 15 tcp 1040 [0 0 0 0] ------- [0:0 1:1 32 0] [10 0] 0 0
s 1.060798824 _0_ RTR  --- 14 tcp 1040 [0 0 0 0] ------- [0:0 1:1 30 1] [9 0] 0 0
s 1.060798824 _0_ RTR  --- 15 tcp 1040 [0 0 0 0] ------- [0:0 1:1 30 1] [10 0] 0 0
r 1.070844824 _1_ AGT  --- 9 tcp 1040 [13a 1 0 800] ------- [0:0 1:1 30 1] [5 0] 1 0
s 1.070844824 _1_ AGT  --- 16 ack 40 [0 0 0 0] ------- [1:1 0:0 32 0] [5 0] 0 0
r 1.070844824 _1_ RTR  --- 16 ack 40 [0 0 0 0] ------- [1:1 0:0 32 0] [5 0] 0 0
s 1.070844824 _1_ RTR  --- 16 ack 40 [0 0 0 0] ------- [1:1 0:0 30 0] [5 0] 0 0
r 1.081071491 _1_ AGT  --- 10 tcp 1040 [13a 1 0 800] ------- [0:0 1:1 30 1] [6 0] 1 0
s 1.081071491 _1_ AGT  --- 17 ack 40 [0 0 0 0] ------- [1:1 0:0 32 0] [6 0] 0 0
r 1.081071491 _1_ RTR  --- 17 ack 40 [0 0 0 0] ------- [1:1 0:0 32 0] [6 0] 0 0
s 1.081071491 _1_ RTR  --- 17 ack 40 [0 0 0 0] ------- [1:1 0:0 30 0] [6 0] 0 0
r 1.083077491 _0_ AGT  --- 16 ack 40 [13a 0 1 800] ------- [1:1 0:0 30 0] [5 0] 1 0
s 1.083077491 _0_ AGT  --- 18 tcp 1040 [0 0 0 0] ------- [0:0 1:1 32 0] [11 0] 0 0
r 1.083077491 _0_ RTR  --- 18 tcp 1040 [0 0 0 0] ------- [0:0 1:1 32 0] [11 0] 0 0
s 1.083077491 _0_ AGT  --- 19 tcp 1040 [0 0 0 0] ------- [0:0 1:1 32 0] [12 0] 0 0
r 1.083077491 _0_ RTR  --- 19 tcp 1040 [0 0 0 0] ------- [0:0 1:1 32 0] [12 0] 0 0
s 1.083077491 _0_ RTR  --- 18 tcp 1040 [0 0 0 0] ------- [0:0 1:1 30 1] [11 0] 0 0
s 1.083077491 _0_ RTR  --- 19 tcp 1040 [0 0 0 0] ------- [0:0 1:1 30 1] [12 0] 0 0
r 1.085264157 _0_ AGT  --- 17 ack 40 [13a 0 1 800] ------- [1:1 0:0 30 0] [6 0] 1 0
s 1.085264157 _0_ AGT  --- 20 tcp 1040 [0 0 0 0] ------- [0:0 1:1 32 0] [13 0] 0 0
r 1.085264157 _0_ RTR  --- 20 tcp 1040 [0 0 0 0] ------- [0:0 1:1 32 0] [13 0] 0 0
s 1.085264157 _0_ AGT  --- 21 tcp 1040 [0 0 0 0] ------- [0:0 1:1 32 0] [14 0] 0 0
r 1.085264157 _0_ RTR  --- 21 tcp 1040 [0 0 0 0] ------- [0:0 1:1 32 0] [14 0] 0 0
s 1.085264157 _0_ RTR  --- 20 tcp 1040 [0 0 0 0] ------- [0:0 1:1 30 1] [13 0] 0 0
s 1.085264157 _0_ RTR  --- 21 tcp 1040 [0 0 0 0] ------- [0:0 1:1 30 1] [14 0] 0 0
r 1.095110157 _1_ AGT  --- 11 tcp 1040 [13a 1 0 800] ------- [0:0 1:1 30 1] [7 0] 1 0
s 1.095110157 _1_ AGT  --- 22 ack 40 [0 0 0 0] ------- [1:1 0:0 32 0] [7 0] 0 0
r 1.095110157 _1_ RTR  --- 22 ack 40 [0 0 0 0] ------- [1:1 0:0 32 0] [7 0] 0 0
s 1.095110157 _1_ RTR  --- 22 ack 40 [0 0 0 0] ------- [1:1 0:0 30 0] [7 0] 0 0
r 1.096976157 _0_ AGT  --- 22 ack 40 [13a 0 1 800] ------- [1:1 0:0 30 0] [7 0] 1 0
s 1.096976157 _0_ AGT  --- 23 tcp 1040 [0 0 0 0] ------- [0:0 1:1 32 0] [15 0] 0 0
r 1.096976157 _0_ RTR  --- 23 tcp 1040 [0 0 0 0] ------- [0:0 1:1 32 0] [15 0] 0 0
s 1.096976157 _0_ AGT  --- 24 tcp 1040 [0 0 0 0] ------- [0:0 1:1 32 0] [16 0] 0 0
r 1.096976157 _0_ RTR  --- 24 tcp 1040 [0 0 0 0] ------- [0:0 1:1 32 0] [16 0] 0 0
s 1.096976157 _0_ RTR  --- 23 tcp 1040 [0 0 0 0] ------- [0:0 1:1 30 1] [15 0] 0 0
s 1.096976157 _0_ RTR  --- 24 tcp 1040 [0 0 0 0] ------- [0:0 1:1 30 1] [16 0] 0 0
r 1.107082157 _1_ AGT  --- 12 tcp 1040 [13a 1 0 800] ------- [0:0 1:1 30 1] [8 0] 1 0
s 1.107082157 _1_ AGT  --- 25 ack 40 [0 0 0 0] ------- [1:1 0:0 32 0] [8 0] 0 0
r 1.107082157 _1_ RTR  --- 25 ack 40 [0 0 0 0] ------- [1:1 0:0 32 0] [8 0] 0 0
s 1.107082157 _1_ RTR  --- 25 ack 40 [0 0 0 0] ------- [1:1 0:0 30 0] [8 0] 0 0
r 1.109008157 _0_ AGT  --- 25 ack 40 [13a 0 1 800] ------- [1:1 0:0 30 0] [8 0] 1 0
s 1.109008157 _0_ AGT  --- 26 tcp 1040 [0 0 0 0] ------- [0:0 1:1 32 0] [17 0] 0 0
r 1.109008157 _0_ RTR  --- 26 tcp 1040 [0 0 0 0] ------- [0:0 1:1 32 0] [17 0] 0 0
s 1.109008157 _0_ AGT  --- 27 tcp 1040 [0 0 0 0] ------- [0:0 1:1 32 0] [18 0] 0 0
r 1.109008157 _0_ RTR  --- 27 tcp 1040 [0 0 0 0] ------- [0:0 1:1 32 0] [18 0] 0 0
s 1.109008157 _0_ RTR  --- 26 tcp 1040 [0 0 0 0] ------- [0:0 1:1 30 1] [17 0] 0 0
s 1.109008157 _0_ RTR  --- 27 tcp 1040 [0 0 0 0] ------- [0:0 1:1 30 1] [18 0] 0 0
r 1.118894157 _1_ AGT  --- 14 tcp 1040 [13a 1 0 800] ------- [0:0 1:1 30 1] [9 0] 1 0
s 1.118894157 _1_ AGT  --- 28 ack 40 [0 0 0 0] ------- [1:1 0:0 32 0] [9 0] 0 0
r 1.118894157 _1_ RTR  --- 28 ack 40 [0 0 0 0] ------- [1:1 0:0 32 0] [9 0] 0 0
s 1.118894157 _1_ RTR  --- 28 ack 40 [0 0 0 0] ------- [1:1 0:0 30 0] [9 0] 0 0
r 1.120760157 _0_ AGT  --- 28 ack 40 [13a 0 1 800] ------- [1:1 0:0 30 0] [9 0] 1 0
s 1.120760157 _0_ AGT  --- 29 tcp 1040 [0 0 0 0] ------- [0:0 1:1 32 0] [19 0] 0 0
r 1.120760157 _0_ RTR  --- 29 tcp 1040 [0 0 0 0] ------- [0:0 1:1 32 0] [19 0] 0 0
s 1.120760157 _0_ AGT  --- 30 tcp 1040 [0 0 0 0] ------- [0:0 1:1 32 0] [20 0] 0 0
r 1.120760157 _0_ RTR  --- 30 tcp 1040 [0 0 0 0] ------- [0:0 1:1 32 0] [20 0] 0 0
s 1.120760157 _0_ RTR  --- 29 tcp 1040 [0 0 0 0] ------- [0:0 1:1 30 1] [19 0] 0 0
s 1.120760157 _0_ RTR  --- 30 tcp 1040 [0 0 0 0] ------- [0:0 1:1 30 1] [20 0] 0 0
r 1.130846157 _1_ AGT  --- 15 tcp 1040 [13a 1 0 800] ------- [0:0 1:1 30 1] [10 0] 1 0
s 1.130846157 _1_ AGT  --- 31 ack 40 [0 0 0 0] ------- [1:1 0:0 32 0] [10 0] 0 0
r 1.130846157 _1_ RTR  --- 31 ack 40 [0 0 0 0] ------- [1:1 0:0 32 0] [10 0] 0 0
s 1.130846157 _1_ RTR  --- 31 ack 40 [0 0 0 0] ------- [1:1 0:0 30 0] [10 0] 0 0
r 1.132772157 _0_ AGT  --- 31 ack 40 [13a 0 1 800] ------- [1:1 0:0 30 0] [10 0] 1 0
s 1.132772157 _0_ AGT  --- 32 tcp 1040 [0 0 0 0] ------- [0:0 1:1 32 0] [21 0] 0 0
r 1.132772157 _0_ RTR  --- 32 tcp 1040 [0 0 0 0] ------- [0:0 1:1 32 0] [21 0] 0 0
s 1.132772157 _0_ AGT  --- 33 tcp 1040 [0 0 0 0] ------- [0:0 1:1 32 0] [22 0] 0 0
r 1.132772157 _0_ RTR  --- 33 tcp 1040 [0 0 0 0] ------- [0:0 1:1 32 0] [22 0] 0 0
s 1.132772157 _0_ RTR  --- 32 tcp 1040 [0 0 0 0] ------- [0:0 1:1 30 1] [21 0] 0 0
s 1.132772157 _0_ RTR  --- 33 tcp 1040 [0 0 0 0] ------- [0:0 1:1 30 1] [22 0] 0 0
r 1.143038157 _1_ AGT  --- 18 tcp 1040 [13a 1 0 800] ------- [0:0 1:1 30 1] [11 0] 1 0
s 1.143038157 _1_ AGT  --- 34 ack 40 [0 0 0 0] ------- [1:1 0:0 32 0] [11 0] 0 0
r 1.143038157 _1_ RTR  --- 34 ack 40 [0 0 0 0] ------- [1:1 0:0 32 0] [11 0] 0 0
s 1.143038157 _1_ RTR  --- 34 ack 40 [0 0 0 0] ------- [1:1 0:0 30 0] [11 0] 0 0
r 1.145064157 _0_ AGT  --- 34 ack 40 [13a 0 1 800] ------- [1:1 0:0 30 0] [11 0] 1 0
s 1.145064157 _0_ AGT  --- 35 tcp 1040 [0 0 0 0] ------- [0:0 1:1 32 0] [23 0] 0 0
r 1.145064157 _0_ RTR  --- 35 tcp 1040 [0 0 0 0] ------- [0:0 1:1 32 0] [23 0] 0 0
s 1.145064157 _0_ AGT  --- 36 tcp 1040 [0 0 0 0] ------- [0:0 1:1 32 0] [24 0] 0 0
r 1.145064157 _0_ RTR  --- 36 tcp 1040 [0 0 0 0] ------- [0:0 1:1 32 0] [24 0] 0 0
s 1.145064157 _0_ RTR  --- 35 tcp 1040 [0 0 0 0] ------- [0:0 1:1 30 1] [23 0] 0 0
s 1.145064157 _0_ RTR  --- 36 tcp 1040 [0 0 0 0] ------- [0:0 1:1 30 1] [24 0] 0 0
r 1.155290157 _1_ AGT  --- 19 tcp 1040 [13a 1 0 800] ------- [0:0 1:1 30 1] [12 0] 1 0
s 1.155290157 _1_ AGT  --- 37 ack 40 [0 0 0 0] ------- [1:1 0:0 32 0] [12 0] 0 0
r 1.155290157 _1_ RTR  --- 37 ack 40 [0 0 0 0] ------- [1:1 0:0 32 0] [12 0] 0 0
s 1.155290157 _1_ RTR  --- 37 ack 40 [0 0 0 0] ------- [1:1 0:0 30 0] [12 0] 0 0
r 1.157236157 _0_ AGT  --- 37 ack 40 [13a 0 1 800] ------- [1:1 0:0 30 0] [12 0] 1 0
s 1.157236157 _0_ AGT  --- 38 tcp 1040 [0 0 0 0] ------- [0:0 1:1 32 0] [25 0] 0 0
r 1.157236157 _0_ RTR  --- 38 tcp 1040 [0 0 0 0] ------- [0:0 1:1 32 0] [25 0] 0 0
s 1.157236157 _0_ AGT  --- 39 tcp 1040 [0 0 0 0] ------- [0:0 1:1 32 0] [26 0] 0 0
r 1.157236157 _0_ RTR  --- 39 tcp 1040 [0 0 0 0] ------- [0:0 1:1 32 0] [26 0] 0 0
s 1.157236157 _0_ RTR  --- 38 tcp 1040 [0 0 0 0] ------- [0:0 1:1 30 1] [25 0] 0 0
s 1.157236157 _0_ RTR  --- 39 tcp 1040 [0 0 0 0] ------- [0:0 1:1 30 1] [26 0] 0 0
r 1.167302157 _1_ AGT  --- 20 tcp 1040 [13a 1 0 800] ------- [0:0 1:1 30 1] [13 0] 1 0
s 1.167302157 _1_ AGT  --- 40 ack 40 [0 0 0 0] ------- [1:1 0:0 32 0] [13 0] 0 0
r 1.167302157 _1_ RTR  --- 40 ack 40 [0 0 0 0] ------- [1:1 0:0 32 0] [13 0] 0 0
s 1.167302157 _1_ RTR  --- 40 ack 40 [0 0 0 0] ------- [1:1 0:0 30 0] [13 0] 0 0
r 1.178654824 _1_ AGT  --- 21 tcp 1040 [13a 1 0 800] ------- [0:0 1:1 30 1] [14 0] 1 0
s 1.178654824 _1_ AGT  --- 41 ack 40 [0 0 0 0] ------- [1:1 0:0 32 0] [14 0] 0 0
r 1.178654824 _1_ RTR  --- 41 ack 40 [0 0 0 0] ------- [1:1 0:0 32 0] [14 0] 0 0
s 1.178654824 _1_ RTR  --- 41 ack 40 [0 0 0 0] ------- [1:1 0:0 30 0] [14 0] 0 0
r 1.181768157 _0_ AGT  --- 40 ack 40 [13a 0 1 800] ------- [1:1 0:0 30 0] [13 0] 1 0
s 1.181768157 _0_ AGT  --- 42 tcp 1040 [0 0 0 0] ------- [0:0 1:1 32 0] [27 0] 0 0
r 1.181768157 _0_ RTR  --- 42 tcp 1040 [0 0 0 0] ------- [0:0 1:1 32 0] [27 0] 0 0
s 1.181768157 _0_ AGT  --- 43 tcp 1040 [0 0 0 0] ------- [0:0 1:1 32 0] [28 0] 0 0
r 1.181768157 _0_ RTR  --- 43 tcp 1040 [0 0 0 0] ------- [0:0 1:1 32 0] [28 0] 0 0
s 1.181768157 _0_ RTR  --- 42 tcp 1040 [0 0 0 0] ------- [0:0 1:1 30 1] [27 0] 0 0
s 1.181768157 _0_ RTR  --- 43 tcp 1040 [0 0 0 0] ------- [0:0 1:1 30 1] [28 0] 0 0
r 1.183914824 _0_ AGT  --- 41 ack 40 [13a 0 1 800] ------- [1:1 0:0 30 0] [14 0] 1 0
s 1.183914824 _0_ AGT  --- 44 tcp 1040 [0 0 0 0] ------- [0:0 1:1 32 0] [29 0] 0 0
r 1.183914824 _0_ RTR  --- 44 tcp 1040 [0 0 0 0] ------- [0:0 1:1 32 0] [29 0] 0 0
s 1.183914824 _0_ AGT  --- 45 tcp 1040 [0 0 0 0] ------- [0:0 1:1 32 0] [30 0] 0 0
r 1.183914824 _0_ RTR  --- 45 tcp 1040 [0 0 0 0] ------- [0:0 1:1 32 0] [30 0] 0 0
s 1.183914824 _0_ RTR  --- 44 tcp 1040 [0 0 0 0] ------- [0:0 1:1 30 1] [29 0] 0 0
s 1.183914824 _0_ RTR  --- 45 tcp 1040 [0 0 0 0] ------- [0:0 1:1 30 1] [30 0] 0 0
r 1.194360824 _1_ AGT  --- 23 tcp 1040 [13a 1 0 800] ------- [0:0 1:1 30 1] [15 0] 1 0
s 1.194360824 _1_ AGT  --- 46 ack 40 [0 0 0 0] ------- [1:1 0:0 32 0] [15 0] 0 0
r 1.194360824 _1_ RTR  --- 46 ack 40 [0 0 0 0] ------- [1:1 0:0 32 0] [15 0] 0 0
s 1.194360824 _1_ RTR  --- 46 ack 40 [0 0 0 0] ------- [1:1 0:0 30 0] [15 0] 0 0
r 1.204267491 _1_ AGT  --- 24 tcp 1040 [13a 1 0 800] ------- [0:0 1:1 30 1] [16 0] 1 0
s 1.204267491 _1_ AGT  --- 47 ack 40 [0 0 0 0] ------- [1:1 0:0 32 0] [16 0] 0 0
r 1.204267491 _1_ RTR  --- 47 ack 40 [0 0 0 0] ------- [1:1 0:0 32 0] [16 0] 0 0
s 1.204267491 _1_ RTR  --- 47 ack 40 [0 0 0 0] ------- [1:1 0:0 30 0] [16 0] 0 0
r 1.206233491 _0_ AGT  --- 46 ack 40 [13a 0 1 800] ------- [1:1 0:0 30 0] [15 0] 1 0
s 1.206233491 _0_ AGT  --- 48 tcp 1040 [0 0 0 0] ------- [0:0 1:1 32 0] [31 0] 0 0
r 1.206233491 _0_ RTR  --- 48 tcp 1040 [0 0 0 0] ------- [0:0 1:1 32 0] [31 0] 0 0
s 1.206233491 _0_ AGT  --- 49 tcp 1040 [0 0 0 0] ------- [0:0 1:1 32 0] [32 0] 0 0
r 1.206233491 _0_ RTR  --- 49 tcp 1040 [0 0 0 0] ------- [0:0 1:1 32 0] [32 0] 0 0
s 1.206233491 _0_ RTR  --- 48 tcp 1040 [0 0 0 0] ------- [0:0 1:1 30 1] [31 0] 0 0
s 1.206233491 _0_ RTR  --- 49 tcp 1040 [0 0 0 0] ------- [0:0 1:1 30 1] [32 0] 0 0
r 1.208060157 _0_ AGT  --- 47 ack 40 [13a 0 1 800] ------- [1:1 0:0 30 0] [16 0] 1 0
s 1.208060157 _0_ AGT  --- 50 tcp 1040 [0 0 0 0] ------- [0:0 1:1 32 0] [33 0] 0 0
r 1.208060157 _0_ RTR  --- 50 tcp 1040 [0 0 0 0] ------- [0:0 1:1 32 0] [33 0] 0 0
s 1.208060157 _0_ AGT  --- 51 tcp 1040 [0 0 0 0] ------- [0:0 1:1 32 0] [34 0] 0 0
r 1.208060157 _0_ RTR  --- 51 tcp 1040 [0 0 0 0] ------- [0:0 1:1 32 0] [34 0] 0 0
s 1.208060157 _0_ RTR  --- 50 tcp 1040 [0 0 0 0] ------- [0:0 1:1 30 1] [33 0] 0 0
s 1.208060157 _0_ RTR  --- 51 tcp 1040 [0 0 0 0] ------- [0:0 1:1 30 1] [34 0] 0 0
r 1.218066157 _1_ AGT  --- 26 tcp 1040 [13a 1 0 800] ------- [0:0 1:1 30 1] [17 0] 1 0
s 1.218066157 _1_ AGT  --- 52 ack 40 [0 0 0 0] ------- [1:1 0:0 32 0] [17 0] 0 0
r 1.218066157 _1_ RTR  --- 52 ack 40 [0 0 0 0] ------- [1:1 0:0 32 0] [17 0] 0 0
s 1.218066157 _1_ RTR  --- 52 ack 40 [0 0 0 0] ------- [1:1 0:0 30 0] [17 0] 0 0
r 1.219972157 _0_ AGT  --- 52 ack 40 [13a 0 1 800] ------- [1:1 0:0 30 0] [17 0] 1 0
s 1.219972157 _0_ AGT  --- 53 tcp 1040 [0 0 0 0] ------- [0:0 1:1 32 0] [35 0] 0 0
r 1.219972157 _0_ RTR  --- 53 tcp 1040 [0 0 0 0] ------- [0:0 1:1 32 0] [35 0] 0 0
s 1.219972157 _0_ AGT  --- 54 tcp 1040 [0 0 0 0] ------- [0:0 1:1 32 0] [36 0] 0 0
r 1.219972157 _0_ RTR  --- 54 tcp 1040 [0 0 0 0] ------- [0:0 1:1 32 0] [36 0] 0 0
s 1.219972157 _0_ RTR  --- 53 tcp 1040 [0 0 0 0] ------- [0:0 1:1 30 1] [35 0] 0 0
s 1.219972157 _0_ RTR  --- 54 tcp 1040 [0 0 0 0] ------- [0:0 1:1 30 1] [36 0] 0 0
r 1.230038157 _1_ AGT  --- 27 tcp 1040 [13a 1 0 800] ------- [0:0 1:1 30 1] [18 0] 1 0
s 1.230038157 _1_ AGT  --- 55 ack 40 [0 0 0 0] ------- [1:1 0:0 32 0] [18 0] 0 0
r 1.230038157 _1_ RTR  --- 55 ack 40 [0 0 0 0] ------- [1:1 0:0 32 0] [18 0] 0 0
s 1.230038157 _1_ RTR  --- 55 ack 40 [0 0 0 0] ------- [1:1 0:0 30 0] [18 0] 0 0
r 1.239884824 _1_ AGT  --- 29 tcp 1040 [13a 1 0 800] ------- [0:0 1:1 30 1] [19 0] 1 0
s 1.239884824 _1_ AGT  --- 56 ack 40 [0 0 0 0] ------- [1:1 0:0 32 0] [19 0] 0 0
r 1.239884824 _1_ RTR  --- 56 ack 40 [0 0 0 0] ------- [1:1 0:0 32 0] [19 0] 0 0
s 1.239884824 _1_ RTR  --- 56 ack 40 [0 0 0 0] ------- [1:1 0:0 30 0] [19 0] 0 0
r 1.241750824 _0_ AGT  --- 55 ack 40 [13a 0 1 800] ------- [1:1 0:0 30 0] [18 0] 1 0
s 1.241750824 _0_ AGT  --- 57 tcp 1040 [0 0 0 0] ------- [0:0 1:1 32 0] [37 0] 0 0
r 1.241750824 _0_ RTR  --- 57 tcp 1040 [0 0 0 0] ------- [0:0 1:1 32 0] [37 0] 0 0
s 1.241750824 _0_ AGT  --- 58 tcp 1040 [0 0 0 0] ------- [0:0 1:1 32 0] [38 0] 0 0
r 1.241750824 _0_ RTR  --- 58 tcp 1040 [0 0 0 0] ------- [0:0 1:1 32 0] [38 0] 0 0
s 1.241750824 _0_ RTR  --- 57 tcp 1040 [0 0 0 0] ------- [0:0 1:1 30 1] [37 0] 0 0
s 1.241750824 _0_ RTR  --- 58 tcp 1040 [0 0 0 0] ------- [0:0 1:1 30 1] [38 0] 0 0
r 1.243817491 _0_ AGT  --- 56 ack 40 [13a 0 1 800] ------- [1:1 0:0 30 0] [19 0] 1 0
s 1.243817491 _0_ AGT  --- 59 tcp 1040 [0 0 0 0] ------- [0:0 1:1 32 0] [39 0] 0 0
r 1.243817491 _0_ RTR  --- 59 tcp 1040 [0 0 0 0] ------- [0:0 1:1 32 0] [39 0] 0 0
s 1.243817491 _0_ RTR  --- 59 tcp 1040 [0 0 0 0] ------- [0:0 1:1 30 1] [39 0] 0 0
r 1.253863491 _1_ AGT  --- 30 tcp 1040 [13a 1 0 800] ------- [0:0 1:1 30 1] [20 0] 1 0
s 1.253863491 _1_ AGT  --- 60 ack 40 [0 0 0 0] ------- [1:1 0:0 32 0] [20 0] 0 0
r 1.253863491 _1_ RTR  --- 60 ack 40 [0 0 0 0] ------- [1:1 0:0 32 0] [20 0] 0 0
s 1.253863491 _1_ RTR  --- 60 ack 40 [0 0 0 0] ------- [1:1 0:0 30 0] [20 0] 0 0
r 1.263730157 _1_ AGT  --- 32 tcp 1040 [13a 1 0 800] ------- [0:0 1:1 30 1] [21 0] 1 0
s 1.263730157 _1_ AGT  --- 61 ack 40 [0 0 0 0] ------- [1:1 0:0 32 0] [21 0] 0 0
r 1.263730157 _1_ RTR  --- 61 ack 40 [0 0 0 0] ------- [1:1 0:0 32 0] [21 0] 0 0
s 1.263730157 _1_ RTR  --- 61 ack 40 [0 0 0 0] ------- [1:1 0:0 30 0] [21 0] 0 0
r 1.265816157 _0_ AGT  --- 60 ack 40 [13a 0 1 800] ------- [1:1 0:0 30 0] [20 0] 1 0
s 1.265816157 _0_ AGT  --- 62 tcp 1040 [0 0 0 0] ------- [0:0 1:1 32 0] [40 0] 0 0
r 1.265816157 _0_ RTR  --- 62 tcp 1040 [0 0 0 0] ------- [0:0 1:1 32 0] [40 0] 0 0
s 1.265816157 _0_ RTR  --- 62 tcp 1040 [0 0 0 0] ------- [0:0 1:1 30 1] [40 0] 0 0
r 1.267762824 _0_ AGT  --- 61 ack 40 [13a 0 1 800] ------- [1:1 0:0 30 0] [21 0] 1 0
s 1.267762824 _0_ AGT  --- 63 tcp 1040 [0 0 0 0] ------- [0:0 1:1 32 0] [41 0] 0 0
r 1.267762824 _0_ RTR  --- 63 tcp 1040 [0 0 0 0] ------- [0:0 1:1 32 0] [41 0] 0 0
s 1.267762824 _0_ RTR  --- 63 tcp 1040 [0 0 0 0] ------- [0:0 1:1 30 1] [41 0] 0 0
r 1.277688824 _1_ AGT  --- 33 tcp 1040 [13a 1 0 800] ------- [0:0 1:1 30 1] [22 0] 1 0
s 1.277688824 _1_ AGT  --- 64 ack 40 [0 0 0 0] ------- [1:1 0:0 32 0] [22 0] 0 0
r 1.277688824 _1_ RTR  --- 64 ack 40 [0 0 0 0] ------- [1:1 0:0 32 0] [22 0] 0 0
s 1.277688824 _1_ RTR  --- 64 ack 40 [0 0 0 0] ------- [1:1 0:0 30 0] [22 0] 0 0
r 1.287615491 _1_ AGT  --- 35 tcp 1040 [13a 1 0 800] ------- [0:0 1:1 30 1] [23 0] 1 0
s 1.287615491 _1_ AGT  --- 65 ack 40 [0 0 0 0] ------- [1:1 0:0 32 0] [23 0] 0 0
r 1.287615491 _1_ RTR  --- 65 ack 40 [0 0 0 0] ------- [1:1 0:0 32 0] [23 0] 0 0
s 1.287615491 _1_ RTR  --- 65 ack 40 [0 0 0 0] ------- [1:1 0:0 30 0] [23 0] 0 0
r 1.289461491 _0_ AGT  --- 64 ack 40 [13a 0 1 800] ------- [1:1 0:0 30 0] [22 0] 1 0
s 1.289461491 _0_ AGT  --- 66 tcp 1040 [0 0 0 0] ------- [0:0 1:1 32 0] [42 0] 0 0
r 1.289461491 _0_ RTR  --- 66 tcp 1040 [0 0 0 0] ------- [0:0 1:1 32 0] [42 0] 0 0
s 1.289461491 _0_ RTR  --- 66 tcp 1040 [0 0 0 0] ------- [0:0 1:1 30 1] [42 0] 0 0
r 1.299367491 _1_ AGT  --- 36 tcp 1040 [13a 1 0 800] ------- [0:0 1:1 30 1] [24 0] 1 0
s 1.299367491 _1_ AGT  --- 67 ack 40 [0 0 0 0] ------- [1:1 0:0 32 0] [24 0] 0 0
r 1.299367491 _1_ RTR  --- 67 ack 40 [0 0 0 0] ------- [1:1 0:0 32 0] [24 0] 0 0
s 1.299367491 _1_ RTR  --- 67 ack 40 [0 0 0 0] ------- [1:1 0:0 30 0] [24 0] 0 0
r 1.310740157 _1_ AGT  --- 38 tcp 1040 [13a 1 0 800] ------- [0:0 1:1 30 1] [25 0] 1 0
s 1.310740157 _1_ AGT  --- 68 ack 40 [0 0 0 0] ------- [1:1 0:0 32 0] [25 0] 0 0
r 1.310740157 _1_ RTR  --- 68 ack 40 [0 0 0 0] ------- [1:1 0:0 32 0] [25 0] 0 0
s 1.310740157 _1_ RTR  --- 68 ack 40 [0 0 0 0] ------- [1:1 0:0 30 0] [25 0] 0 0
r 1.312686157 _0_ AGT  --- 65 ack 40 [13a 0 1 800] ------- [1:1 0:0 30 0] [23 0] 1 0
s 1.312686157 _0_ AGT  --- 69 tcp 1040 [0 0 0 0] ------- [0:0 1:1 32 0] [43 0] 0 0
r 1.312686157 _0_ RTR  --- 69 tcp 1040 [0 0 0 0] ------- [0:0 1:1 32 0] [43 0] 0 0
s 1.312686157 _0_ RTR  --- 69 tcp 1040 [0 0 0 0] ------- [0:0 1:1 30 1] [43 0] 0 0
r 1.314632824 _0_ AGT  --- 67 ack 40 [13a 0 1 800] ------- [1:1 0:0 30 0] [24 0] 1 0
s 1.314632824 _0_ AGT  --- 70 tcp 1040 [0 0 0 0] ------- [0:0 1:1 32 0] [44 0] 0 0
r 1.314632824 _0_ RTR  --- 70 tcp 1040 [0 0 0 0] ------- [0:0 1:1 32 0] [44 0] 0 0
s 1.314632824 _0_ RTR  --- 70 tcp 1040 [0 0 0 0] ------- [0:0 1:1 30 1] [44 0] 0 0
r 1.316519491 _0_ AGT  --- 68 ack 40 [13a 0 1 800] ------- [1:1 0:0 30 0] [25 0] 1 0
s 1.316519491 _0_ AGT  --- 71 tcp 1040 [0 0 0 0] ------- [0:0 1:1 32 0] [45 0] 0 0
r 1.316519491 _0_ RTR  --- 71 tcp 1040 [0 0 0 0] ------- [0:0 1:1 32 0] [45 0] 0 0
s 1.316519491 _0_ RTR  --- 71 tcp 1040 [0 0 0 0] ------- [0:0 1:1 30 1] [45 0] 0 0
r 1.326665491 _1_ AGT  --- 39 tcp 1040 [13a 1 0 800] ------- [0:0 1:1 30 1] [26 0] 1 0
s 1.326665491 _1_ AGT  --- 72 ack 40 [0 0 0 0] ------- [1:1 0:0 32 0] [26 0] 0 0
r 1.326665491 _1_ RTR  --- 72 ack 40 [0 0 0 0] ------- [1:1 0:0 32 0] [26 0] 0 0
s 1.326665491 _1_ RTR  --- 72 ack 40 [0 0 0 0] ------- [1:1 0:0 30 0] [26 0] 0 0
r 1.336612157 _1_ AGT  --- 42 tcp 1040 [13a 1 0 800] ------- [0:0 1:1 30 1] [27 0] 1 0
s 1.336612157 _1_ AGT  --- 73 ack 40 [0 0 0 0] ------- [1:1 0:0 32 0] [27 0] 0 0
r 1.336612157 _1_ RTR  --- 73 ack 40 [0 0 0 0] ------- [1:1 0:0 32 0] [27 0] 0 0
s 1.336612157 _1_ RTR  --- 73 ack 40 [0 0 0 0] ------- [1:1 0:0 30 0] [27 0] 0 0
r 1.338598157 _0_ AGT  --- 72 ack 40 [13a 0 1 800] ------- [1:1 0:0 30 0] [26 0] 1 0
s 1.338598157 _0_ AGT  --- 74 tcp 1040 [0 0 0 0] ------- [0:0 1:1 32 0] [46 0] 0 0
r 1.338598157 _0_ RTR  --- 74 tcp 1040 [0 0 0 0] ------- [0:0 1:1 32 0] [46 0] 0 0
s 1.338598157 _0_ RTR  --- 74 tcp 1040 [0 0 0 0] ------- [0:0 1:1 30 1] [46 0] 0 0
r 1.340864824 _0_ AGT  --- 73 ack 40 [13a 0 1 800] ------- [1:1 0:0 30 0] [27 0] 1 0
s 1.340864824 _0_ AGT  --- 75 tcp 1040 [0 0 0 0] ------- [0:0 1:1 32 0] [47 0] 0 0
r 1.340864824 _0_ RTR  --- 75 tcp 1040 [0 0 0 0] ------- [0:0 1:1 32 0] [47 0] 0 0
s 1.340864824 _0_ RTR  --- 75 tcp 1040 [0 0 0 0] ------- [0:0 1:1 30 1] [47 0] 0 0
r 1.350710824 _1_ AGT  --- 43 tcp 1040 [13a 1 0 800] ------- [0:0 1:1 30 1] [28 0] 1 0
s 1.350710824 _1_ AGT  --- 76 ack 40 [0 0 0 0] ------- [1:1 0:0 32 0] [28 0] 0 0
r 1.350710824 _1_ RTR  --- 76 ack 40 [0 0 0 0] ------- [1:1 0:0 32 0] [28 0] 0 0
s 1.350710824 _1_ RTR  --- 76 ack 40 [0 0 0 0] ------- [1:1 0:0 30 0] [28 0] 0 0
r 1.360837491 _1_ AGT  --- 44 tcp 1040 [13a 1 0 800] ------- [0:0 1:1 30 1] [29 0] 1 0
s 1.360837491 _1_ AGT  --- 77 ack 40 [0 0 0 0] ------- [1:1 0:0 32 0] [29 0] 0 0
r 1.360837491 _1_ RTR  --- 77 ack 40 [0 0 0 0] ------- [1:1 0:0 32 0] [29 0] 0 0
s 1.360837491 _1_ RTR  --- 77 ack 40 [0 0 0 0] ------- [1:1 0:0 30 0] [29 0] 0 0
r 1.362903491 _0_ AGT  --- 76 ack 40 [13a 0 1 800] ------- [1:1 0:0 30 0] [28 0] 1 0
s 1.362903491 _0_ AGT  --- 78 tcp 1040 [0 0 0 0] ------- [0:0 1:1 32 0] [48 0] 0 0
r 1.362903491 _0_ RTR  --- 78 tcp 1040 [0 0 0 0] ------- [0:0 1:1 32 0] [48 0] 0 0
s 1.362903491 _0_ RTR  --- 78 tcp 1040 [0 0 0 0] ------- [0:0 1:1 30 1] [48 0] 0 0
r 1.372809491 _1_ AGT  --- 45 tcp 1040 [13a 1 0 800] ------- [0:0 1:1 30 1] [30 0] 1 0
s 1.372809491 _1_ AGT  --- 79 ack 40 [0 0 0 0] ------- [1:1 0:0 32 0] [30 0] 0 0
r 1.372809491 _1_ RTR  --- 79 ack 40 [0 0 0 0] ------- [1:1 0:0 32 0] [30 0] 0 0
s 1.372809491 _1_ RTR  --- 79 ack 40 [0 0 0 0] ------- [1:1 0:0 30 0] [30 0] 0 0
r 1.374875491 _0_ AGT  --- 77 ack 40 [13a 0 1 800] ------- [1:1 0:0 30 0] [29 0] 1 0
s 1.374875491 _0_ AGT  --- 80 tcp 1040 [0 0 0 0] ------- [0:0 1:1 32 0] [49 0] 0 0
r 1.374875491 _0_ RTR  --- 80 tcp 1040 [0 0 0 0] ------- [0:0 1:1 32 0] [49 0] 0 0
s 1.374875491 _0_ RTR  --- 80 tcp 1040 [0 0 0 0] ------- [0:0 1:1 30 1] [49 0] 0 0
r 1.376742157 _0_ AGT  --- 79 ack 40 [13a 0 1 800] ------- [1:1 0:0 30 0] [30 0] 1 0
s 1.376742157 _0_ AGT  --- 81 tcp 1040 [0 0 0 0] ------- [0:0 1:1 32 0] [50 0] 0 0
r 1.376742157 _0_ RTR  --- 81 tcp 1040 [0 0 0 0] ------- [0:0 1:1 32 0] [50 0] 0 0
s 1.376742157 _0_ RTR  --- 81 tcp 1040 [0 0 0 0] ------- [0:0 1:1 30 1] [50 0] 0 0
r 1.386648157 _1_ AGT  --- 48 tcp 1040 [13a 1 0 800] ------- [0:0 1:1 30 1] [31 0] 1 0
s 1.386648157 _1_ AGT  --- 82 ack 40 [0 0 0 0] ------- [1:1 0:0 32 0] [31 0] 0 0
r 1.386648157 _1_ RTR  --- 82 ack 40 [0 0 0 0] ------- [1:1 0:0 32 0] [31 0] 0 0
s 1.386648157 _1_ RTR  --- 82 ack 40 [0 0 0 0] ------- [1:1 0:0 30 0] [31 0] 0 0
r 1.396694824 _1_ AGT  --- 49 tcp 1040 [13a 1 0 800] ------- [0:0 1:1 30 1] [32 0] 1 0
s 1.396694824 _1_ AGT  --- 83 ack 40 [0 0 0 0] ------- [1:1 0:0 32 0] [32 0] 0 0
r 1.396694824 _1_ RTR  --- 83 ack 40 [0 0 0 0] ------- [1:1 0:0 32 0] [32 0] 0 0
s 1.396694824 _1_ RTR  --- 83 ack 40 [0 0 0 0] ------- [1:1 0:0 30 0] [32 0] 0 0
r 1.406701491 _1_ AGT  --- 50 tcp 1040 [13a 1 0 800] ------- [0:0 1:1 30 1] [33 0] 1 0
s 1.406701491 _1_ AGT  --- 84 ack 40 [0 0 0 0] ------- [1:1 0:0 32 0] [33 0] 0 0
r 1.406701491 _1_ RTR  --- 84 ack 40 [0 0 0 0] ------- [1:1 0:0 32 0] [33 0] 0 0
s 1.406701491 _1_ RTR  --- 84 ack 40 [0 0 0 0] ------- [1:1 0:0 30 0] [33 0] 0 0
r 1.408647491 _0_ AGT  --- 82 ack 40 [13a 0 1 800] ------- [1:1 0:0 30 0] [31 0] 1 0
s 1.408647491 _0_ AGT  --- 85 tcp 1040 [0 0 0 0] ------- [0:0 1:1 32 0] [51 0] 0 0
r 1.408647491 _0_ RTR  --- 85 tcp 1040 [0 0 0 0] ------- [0:0 1:1 32 0] [51 0] 0 0
s 1.408647491 _0_ RTR  --- 85 tcp 1040 [0 0 0 0] ------- [0:0 1:1 30 1] [51 0] 0 0
r 1.418533491 _1_ AGT  --- 51 tcp 1040 [13a 1 0 800] ------- [0:0 1:1 30 1] [34 0] 1 0
s 1.418533491 _1_ AGT  --- 86 ack 40 [0 0 0 0] ------- [1:1 0:0 32 0] [34 0] 0 0
r 1.418533491 _1_ RTR  --- 86 ack 40 [0 0 0 0] ------- [1:1 0:0 32 0] [34 0] 0 0
s 1.418533491 _1_ RTR  --- 86 ack 40 [0 0 0 0] ------- [1:1 0:0 30 0] [34 0] 0 0
r 1.422666824 _0_ AGT  --- 83 ack 40 [13a 0 1 800] ------- [1:1 0:0 30 0] [32 0] 1 0
s 1.422666824 _0_ AGT  --- 87 tcp 1040 [0 0 0 0] ------- [0:0 1:1 32 0] [52 0] 0 0
r 1.422666824 _0_ RTR  --- 87 tcp 1040 [0 0 0 0] ------- [0:0 1:1 32 0] [52 0] 0 0
s 1.422666824 _0_ RTR  --- 87 tcp 1040 [0 0 0 0] ------- [0:0 1:1 30 1] [52 0] 0 0
r 1.432532824 _1_ AGT  --- 53 tcp 1040 [13a 1 0 800] ------- [0:0 1:1 30 1] [35 0] 1 0
s 1.432532824 _1_ AGT  --- 88 ack 40 [0 0 0 0] ------- [1:1 0:0 32 0] [35 0] 0 0
r 1.432532824 _1_ RTR  --- 88 ack 40 [0 0 0 0] ------- [1:1 0:0 32 0] [35 0] 0 0
s 1.432532824 _1_ RTR  --- 88 ack 40 [0 0 0 0] ------- [1:1 0:0 30 0] [35 0] 0 0
r 1.442359491 _1_ AGT  --- 54 tcp 1040 [13a 1 0 800] ------- [0:0 1:1 30 1] [36 0] 1 0
s 1.442359491 _1_ AGT  --- 89 ack 40 [0 0 0 0] ------- [1:1 0:0 32 0] [36 0] 0 0
r 1.442359491 _1_ RTR  --- 89 ack 40 [0 0 0 0] ------- [1:1 0:0 32 0] [36 0] 0 0
s 1.442359491 _1_ RTR  --- 89 ack 40 [0 0 0 0] ------- [1:1 0:0 30 0] [36 0] 0 0
r 1.452326157 _1_ AGT  --- 57 tcp 1040 [13a 1 0 800] ------- [0:0 1:1 30 1] [37 0] 1 0
s 1.452326157 _1_ AGT  --- 90 ack 40 [0 0 0 0] ------- [1:1 0:0 32 0] [37 0] 0 0
r 1.452326157 _1_ RTR  --- 90 ack 40 [0 0 0 0] ------- [1:1 0:0 32 0] [37 0] 0 0
s 1.452326157 _1_ RTR  --- 90 ack 40 [0 0 0 0] ------- [1:1 0:0 30 0] [37 0] 0 0
r 1.454212157 _0_ AGT  --- 84 ack 40 [13a 0 1 800] ------- [1:1 0:0 30 0] [33 0] 1 0
s 1.454212157 _0_ AGT  --- 91 tcp 1040 [0 0 0 0] ------- [0:0 1:1 32 0] [53 0] 0 0
r 1.454212157 _0_ RTR  --- 91 tcp 1040 [0 0 0 0] ------- [0:0 1:1 32 0] [53 0] 0 0
s 1.454212157 _0_ RTR  --- 91 tcp 1040 [0 0 0 0] ------- [0:0 1:1 30 1] [53 0] 0 0
r 1.465965491 _1_ AGT  --- 58 tcp 1040 [13a 1 0 800] ------- [0:0 1:1 30 1] [38 0] 1 0
s 1.465965491 _1_ AGT  --- 92 ack 40 [0 0 0 0] ------- [1:1 0:0 32 0] [38 0] 0 0
r 1.465965491 _1_ RTR  --- 92 ack 40 [0 0 0 0] ------- [1:1 0:0 32 0] [38 0] 0 0
s 1.465965491 _1_ RTR  --- 92 ack 40 [0 0 0 0] ------- [1:1 0:0 30 0] [38 0] 0 0